 Entering Gaussian System, Link 0=g16
 Input=2,3,3prime,4prime,6-Pentachlorobiphenyl.gjf
 Output=2,3,3prime,4prime,6-Pentachlorobiphenyl.log
 Initial command:
 /opt/g16/l1.exe "/scratch/gour/Gau-47379.inp" -scrdir="/scratch/gour/"
 Entering Link 1 = /opt/g16/l1.exe PID=     47380.
  
 Copyright (c) 1988-2017, Gaussian, Inc.  All Rights Reserved.
  
 This is part of the Gaussian(R) 16 program.  It is based on
 the Gaussian(R) 09 system (copyright 2009, Gaussian, Inc.),
 the Gaussian(R) 03 system (copyright 2003, Gaussian, Inc.),
 the Gaussian(R) 98 system (copyright 1998, Gaussian, Inc.),
 the Gaussian(R) 94 system (copyright 1995, Gaussian, Inc.),
 the Gaussian 92(TM) system (copyright 1992, Gaussian, Inc.),
 the Gaussian 90(TM) system (copyright 1990, Gaussian, Inc.),
 the Gaussian 88(TM) system (copyright 1988, Gaussian, Inc.),
 the Gaussian 86(TM) system (copyright 1986, Carnegie Mellon
 University), and the Gaussian 82(TM) system (copyright 1983,
 Carnegie Mellon University). Gaussian is a federally registered
 trademark of Gaussian, Inc.
  
 This software contains proprietary and confidential information,
 including trade secrets, belonging to Gaussian, Inc.
  
 This software is provided under written license and may be
 used, copied, transmitted, or stored only in accord with that
 written license.
  
 The following legend is applicable only to US Government
 contracts under FAR:
  
                    RESTRICTED RIGHTS LEGEND
  
 Use, reproduction and disclosure by the US Government is
 subject to restrictions as set forth in subparagraphs (a)
 and (c) of the Commercial Computer Software - Restricted
 Rights clause in FAR 52.227-19.
  
 Gaussian, Inc.
 340 Quinnipiac St., Bldg. 40, Wallingford CT 06492
  
  
 ---------------------------------------------------------------
 Warning -- This program may not be used in any manner that
 competes with the business of Gaussian, Inc. or will provide
 assistance to any competitor of Gaussian, Inc.  The licensee
 of this program is prohibited from giving any competitor of
 Gaussian, Inc. access to this program.  By using this program,
 the user acknowledges that Gaussian, Inc. is engaged in the
 business of creating and licensing software in the field of
 computational chemistry and represents and warrants to the
 licensee that it is not a competitor of Gaussian, Inc. and that
 it will not use this program in any manner prohibited above.
 ---------------------------------------------------------------
  

 Cite this work as:
 Gaussian 16, Revision B.01,
 M. J. Frisch, G. W. Trucks, H. B. Schlegel, G. E. Scuseria, 
 M. A. Robb, J. R. Cheeseman, G. Scalmani, V. Barone, 
 G. A. Petersson, H. Nakatsuji, X. Li, M. Caricato, A. V. Marenich, 
 J. Bloino, B. G. Janesko, R. Gomperts, B. Mennucci, H. P. Hratchian, 
 J. V. Ortiz, A. F. Izmaylov, J. L. Sonnenberg, D. Williams-Young, 
 F. Ding, F. Lipparini, F. Egidi, J. Goings, B. Peng, A. Petrone, 
 T. Henderson, D. Ranasinghe, V. G. Zakrzewski, J. Gao, N. Rega, 
 G. Zheng, W. Liang, M. Hada, M. Ehara, K. Toyota, R. Fukuda, 
 J. Hasegawa, M. Ishida, T. Nakajima, Y. Honda, O. Kitao, H. Nakai, 
 T. Vreven, K. Throssell, J. A. Montgomery, Jr., J. E. Peralta, 
 F. Ogliaro, M. J. Bearpark, J. J. Heyd, E. N. Brothers, K. N. Kudin, 
 V. N. Staroverov, T. A. Keith, R. Kobayashi, J. Normand, 
 K. Raghavachari, A. P. Rendell, J. C. Burant, S. S. Iyengar, 
 J. Tomasi, M. Cossi, J. M. Millam, M. Klene, C. Adamo, R. Cammi, 
 J. W. Ochterski, R. L. Martin, K. Morokuma, O. Farkas, 
 J. B. Foresman, and D. J. Fox, Gaussian, Inc., Wallingford CT, 2016.
 
 ******************************************
 Gaussian 16:  EM64L-G16RevB.01 20-Dec-2017
                16-Mar-2022 
 ******************************************
 %mem=10GB
 %nprocshared=4
 Will use up to    4 processors via shared memory.
 --------------------------------
 # opt b3lyp/6-311+g(d,p) scf=xqc
 --------------------------------
 1/18=20,19=15,26=3,38=1/1,3;
 2/9=110,12=2,17=6,18=5,40=1/2;
 3/5=4,6=6,7=111,11=2,25=1,30=1,71=1,74=-5/1,2,3;
 4//1;
 5/5=2,8=3,13=1,38=5/2,8;
 6/7=2,8=2,9=2,10=2,28=1/1;
 7//1,2,3,16;
 1/18=20,19=15,26=3/3(2);
 2/9=110/2;
 99//99;
 2/9=110/2;
 3/5=4,6=6,7=111,11=2,25=1,30=1,71=1,74=-5/1,2,3;
 4/5=5,16=3,69=1/1;
 5/5=2,8=3,13=1,38=5/2,8;
 7//1,2,3,16;
 1/18=20,19=15,26=3/3(-5);
 2/9=110/2;
 6/7=2,8=2,9=2,10=2,19=2,28=1/1;
 99/9=1/99;
 -------------------
 Title Card Required
 -------------------
 Symbolic Z-matrix:
 Charge =  0 Multiplicity = 1
 C                    -0.21152   0.75561  -0.00285 
 C                     1.12086   0.78549  -0.4362 
 C                     1.82876   1.99494  -0.44227 
 C                     1.20427   3.17451  -0.015 
 C                    -0.12811   3.14462   0.41835 
 C                    -0.83601   1.93517   0.42442 
 C                    -0.98942  -0.57346   0.00382 
 C                    -0.36494  -1.75303  -0.42345 
 C                    -1.07283  -2.96248  -0.41738 
 C                    -2.40521  -2.99236   0.01597 
 C                    -3.0297   -1.8128    0.44325 
 C                    -2.3218   -0.60335   0.43717 
 H                     1.59767  -0.11513  -0.76243 
 H                     2.84606   2.01776  -0.77314 
 H                    -1.85331   1.91235   0.75529 
 H                    -0.59602  -3.8631   -0.74361 
 H                    -2.9457   -3.91581   0.02061 
 Cl                   -3.10609   0.87805   0.97378 
 Cl                   -4.70301  -1.85033   0.98749 
 Cl                   -0.9124    4.62602   0.95495 
 Cl                    2.0933    4.69344  -0.02262 
 Cl                    1.30838  -1.71549  -0.96769 
 

 GradGradGradGradGradGradGradGradGradGradGradGradGradGradGradGradGradGrad
 Berny optimization.
 Initialization pass.
                           ----------------------------
                           !    Initial Parameters    !
                           ! (Angstroms and Degrees)  !
 --------------------------                            --------------------------
 ! Name  Definition              Value          Derivative Info.                !
 --------------------------------------------------------------------------------
 ! R1    R(1,2)                  1.4014         estimate D2E/DX2                !
 ! R2    R(1,6)                  1.4014         estimate D2E/DX2                !
 ! R3    R(1,7)                  1.54           estimate D2E/DX2                !
 ! R4    R(2,3)                  1.4014         estimate D2E/DX2                !
 ! R5    R(2,13)                 1.07           estimate D2E/DX2                !
 ! R6    R(3,4)                  1.4014         estimate D2E/DX2                !
 ! R7    R(3,14)                 1.07           estimate D2E/DX2                !
 ! R8    R(4,5)                  1.4014         estimate D2E/DX2                !
 ! R9    R(4,21)                 1.76           estimate D2E/DX2                !
 ! R10   R(5,6)                  1.4014         estimate D2E/DX2                !
 ! R11   R(5,20)                 1.76           estimate D2E/DX2                !
 ! R12   R(6,15)                 1.07           estimate D2E/DX2                !
 ! R13   R(7,8)                  1.4014         estimate D2E/DX2                !
 ! R14   R(7,12)                 1.4014         estimate D2E/DX2                !
 ! R15   R(8,9)                  1.4014         estimate D2E/DX2                !
 ! R16   R(8,22)                 1.76           estimate D2E/DX2                !
 ! R17   R(9,10)                 1.4014         estimate D2E/DX2                !
 ! R18   R(9,16)                 1.07           estimate D2E/DX2                !
 ! R19   R(10,11)                1.4014         estimate D2E/DX2                !
 ! R20   R(10,17)                1.07           estimate D2E/DX2                !
 ! R21   R(11,12)                1.4014         estimate D2E/DX2                !
 ! R22   R(11,19)                1.76           estimate D2E/DX2                !
 ! R23   R(12,18)                1.76           estimate D2E/DX2                !
 ! A1    A(2,1,6)              120.0            estimate D2E/DX2                !
 ! A2    A(2,1,7)              120.0            estimate D2E/DX2                !
 ! A3    A(6,1,7)              120.0            estimate D2E/DX2                !
 ! A4    A(1,2,3)              120.0            estimate D2E/DX2                !
 ! A5    A(1,2,13)             120.0            estimate D2E/DX2                !
 ! A6    A(3,2,13)             120.0            estimate D2E/DX2                !
 ! A7    A(2,3,4)              120.0            estimate D2E/DX2                !
 ! A8    A(2,3,14)             120.0            estimate D2E/DX2                !
 ! A9    A(4,3,14)             120.0            estimate D2E/DX2                !
 ! A10   A(3,4,5)              120.0            estimate D2E/DX2                !
 ! A11   A(3,4,21)             120.0            estimate D2E/DX2                !
 ! A12   A(5,4,21)             120.0            estimate D2E/DX2                !
 ! A13   A(4,5,6)              120.0            estimate D2E/DX2                !
 ! A14   A(4,5,20)             120.0            estimate D2E/DX2                !
 ! A15   A(6,5,20)             120.0            estimate D2E/DX2                !
 ! A16   A(1,6,5)              120.0            estimate D2E/DX2                !
 ! A17   A(1,6,15)             120.0            estimate D2E/DX2                !
 ! A18   A(5,6,15)             120.0            estimate D2E/DX2                !
 ! A19   A(1,7,8)              120.0            estimate D2E/DX2                !
 ! A20   A(1,7,12)             120.0            estimate D2E/DX2                !
 ! A21   A(8,7,12)             120.0            estimate D2E/DX2                !
 ! A22   A(7,8,9)              120.0            estimate D2E/DX2                !
 ! A23   A(7,8,22)             120.0            estimate D2E/DX2                !
 ! A24   A(9,8,22)             120.0            estimate D2E/DX2                !
 ! A25   A(8,9,10)             120.0            estimate D2E/DX2                !
 ! A26   A(8,9,16)             120.0            estimate D2E/DX2                !
 ! A27   A(10,9,16)            120.0            estimate D2E/DX2                !
 ! A28   A(9,10,11)            120.0            estimate D2E/DX2                !
 ! A29   A(9,10,17)            120.0            estimate D2E/DX2                !
 ! A30   A(11,10,17)           120.0            estimate D2E/DX2                !
 ! A31   A(10,11,12)           120.0            estimate D2E/DX2                !
 ! A32   A(10,11,19)           120.0            estimate D2E/DX2                !
 ! A33   A(12,11,19)           120.0            estimate D2E/DX2                !
 ! A34   A(7,12,11)            120.0            estimate D2E/DX2                !
 ! A35   A(7,12,18)            120.0            estimate D2E/DX2                !
 ! A36   A(11,12,18)           120.0            estimate D2E/DX2                !
 ! D1    D(6,1,2,3)              0.0001         estimate D2E/DX2                !
 ! D2    D(6,1,2,13)           180.0            estimate D2E/DX2                !
 ! D3    D(7,1,2,3)           -180.0            estimate D2E/DX2                !
 ! D4    D(7,1,2,13)            -0.0001         estimate D2E/DX2                !
 ! D5    D(2,1,6,5)             -0.0001         estimate D2E/DX2                !
 ! D6    D(2,1,6,15)           180.0            estimate D2E/DX2                !
 ! D7    D(7,1,6,5)            180.0            estimate D2E/DX2                !
 ! D8    D(7,1,6,15)             0.0            estimate D2E/DX2                !
 ! D9    D(2,1,7,8)             -0.0001         estimate D2E/DX2                !
 ! D10   D(2,1,7,12)           179.9998         estimate D2E/DX2                !
 ! D11   D(6,1,7,8)            179.9999         estimate D2E/DX2                !
 ! D12   D(6,1,7,12)            -0.0002         estimate D2E/DX2                !
 ! D13   D(1,2,3,4)              0.0            estimate D2E/DX2                !
 ! D14   D(1,2,3,14)           180.0            estimate D2E/DX2                !
 ! D15   D(13,2,3,4)          -179.9999         estimate D2E/DX2                !
 ! D16   D(13,2,3,14)            0.0001         estimate D2E/DX2                !
 ! D17   D(2,3,4,5)             -0.0001         estimate D2E/DX2                !
 ! D18   D(2,3,4,21)           180.0            estimate D2E/DX2                !
 ! D19   D(14,3,4,5)           179.9999         estimate D2E/DX2                !
 ! D20   D(14,3,4,21)            0.0            estimate D2E/DX2                !
 ! D21   D(3,4,5,6)              0.0001         estimate D2E/DX2                !
 ! D22   D(3,4,5,20)          -179.9999         estimate D2E/DX2                !
 ! D23   D(21,4,5,6)          -180.0            estimate D2E/DX2                !
 ! D24   D(21,4,5,20)            0.0            estimate D2E/DX2                !
 ! D25   D(4,5,6,1)              0.0            estimate D2E/DX2                !
 ! D26   D(4,5,6,15)           179.9999         estimate D2E/DX2                !
 ! D27   D(20,5,6,1)           180.0            estimate D2E/DX2                !
 ! D28   D(20,5,6,15)           -0.0001         estimate D2E/DX2                !
 ! D29   D(1,7,8,9)            179.9999         estimate D2E/DX2                !
 ! D30   D(1,7,8,22)             0.0001         estimate D2E/DX2                !
 ! D31   D(12,7,8,9)             0.0001         estimate D2E/DX2                !
 ! D32   D(12,7,8,22)         -179.9998         estimate D2E/DX2                !
 ! D33   D(1,7,12,11)         -179.9999         estimate D2E/DX2                !
 ! D34   D(1,7,12,18)            0.0            estimate D2E/DX2                !
 ! D35   D(8,7,12,11)           -0.0001         estimate D2E/DX2                !
 ! D36   D(8,7,12,18)          179.9999         estimate D2E/DX2                !
 ! D37   D(7,8,9,10)             0.0            estimate D2E/DX2                !
 ! D38   D(7,8,9,16)           180.0            estimate D2E/DX2                !
 ! D39   D(22,8,9,10)          179.9998         estimate D2E/DX2                !
 ! D40   D(22,8,9,16)           -0.0002         estimate D2E/DX2                !
 ! D41   D(8,9,10,11)            0.0            estimate D2E/DX2                !
 ! D42   D(8,9,10,17)         -179.9999         estimate D2E/DX2                !
 ! D43   D(16,9,10,11)         180.0            estimate D2E/DX2                !
 ! D44   D(16,9,10,17)           0.0001         estimate D2E/DX2                !
 ! D45   D(9,10,11,12)           0.0            estimate D2E/DX2                !
 ! D46   D(9,10,11,19)        -179.9998         estimate D2E/DX2                !
 ! D47   D(17,10,11,12)        179.9999         estimate D2E/DX2                !
 ! D48   D(17,10,11,19)          0.0001         estimate D2E/DX2                !
 ! D49   D(10,11,12,7)           0.0            estimate D2E/DX2                !
 ! D50   D(10,11,12,18)       -179.9999         estimate D2E/DX2                !
 ! D51   D(19,11,12,7)         179.9999         estimate D2E/DX2                !
 ! D52   D(19,11,12,18)         -0.0001         estimate D2E/DX2                !
 --------------------------------------------------------------------------------
 Trust Radius=3.00D-01 FncErr=1.00D-07 GrdErr=1.00D-06 EigMax=2.50D+02 EigMin=1.00D-04
 Number of steps in this run=    121 maximum allowed number of steps=    132.
 GradGradGradGradGradGradGradGradGradGradGradGradGradGradGradGradGradGrad

                          Input orientation:                          
 ---------------------------------------------------------------------
 Center     Atomic      Atomic             Coordinates (Angstroms)
 Number     Number       Type             X           Y           Z
 ---------------------------------------------------------------------
      1          6           0       -0.211518    0.755606   -0.002851
      2          6           0        1.120863    0.785492   -0.436198
      3          6           0        1.828756    1.994943   -0.442270
      4          6           0        1.204269    3.174508   -0.014995
      5          6           0       -0.128113    3.144623    0.418349
      6          6           0       -0.836006    1.935172    0.424422
      7          6           0       -0.989423   -0.573461    0.003823
      8          6           0       -0.364936   -1.753026   -0.423452
      9          6           0       -1.072829   -2.962477   -0.417378
     10          6           0       -2.405209   -2.992364    0.015972
     11          6           0       -3.029696   -1.812799    0.443247
     12          6           0       -2.321803   -0.603347    0.437173
     13          1           0        1.597673   -0.115132   -0.762429
     14          1           0        2.846059    2.017762   -0.773139
     15          1           0       -1.853309    1.912353    0.755291
     16          1           0       -0.596019   -3.863101   -0.743612
     17          1           0       -2.945700   -3.915807    0.020612
     18         17           0       -3.106088    0.878053    0.973785
     19         17           0       -4.703014   -1.850334    0.987490
     20         17           0       -0.912400    4.626024    0.954955
     21         17           0        2.093303    4.693442   -0.022621
     22         17           0        1.308384   -1.715493   -0.967686
 ---------------------------------------------------------------------
                    Distance matrix (angstroms):
                    1          2          3          4          5
     1  C    0.000000
     2  C    1.401400   0.000000
     3  C    2.427296   1.401400   0.000000
     4  C    2.802800   2.427296   1.401400   0.000000
     5  C    2.427296   2.802800   2.427296   1.401400   0.000000
     6  C    1.401400   2.427296   2.802800   2.427296   1.401400
     7  C    1.540000   2.548270   3.838989   4.342800   3.838989
     8  C    2.548270   2.941400   4.342800   5.187469   4.975106
     9  C    3.838989   4.342800   5.744200   6.558176   6.235992
    10  C    4.342800   5.187469   6.558176   7.145600   6.558176
    11  C    3.838989   4.975106   6.235992   6.558176   5.744200
    12  C    2.548270   3.813607   4.975106   5.187469   4.342800
    13  H    2.146700   1.070000   2.146700   3.396345   3.872800
    14  H    3.396345   2.146700   1.070000   2.146700   3.396345
    15  H    2.146700   3.396345   3.872800   3.396345   2.146700
    16  H    4.693509   4.965039   6.347206   7.300676   7.118798
    17  H    5.412800   6.232802   7.612271   8.215600   7.612271
    18  Cl   3.057342   4.456874   5.254079   4.983028   3.783409
    19  Cl   5.286324   6.549198   7.713260   7.819846   6.797295
    20  Cl   4.048303   4.562800   4.048303   2.743718   1.760000
    21  Cl   4.562800   4.048303   2.743718   1.760000   2.743718
    22  Cl   3.057342   2.563702   3.783409   4.983028   5.254079
                    6          7          8          9         10
     6  C    0.000000
     7  C    2.548270   0.000000
     8  C    3.813607   1.401400   0.000000
     9  C    4.975106   2.427296   1.401400   0.000000
    10  C    5.187469   2.802800   2.427296   1.401400   0.000000
    11  C    4.342800   2.427296   2.802800   2.427296   1.401400
    12  C    2.941400   1.401400   2.427296   2.802800   2.427296
    13  H    3.396345   2.736837   2.578650   3.918930   4.990735
    14  H    3.872800   4.693509   4.965039   6.347206   7.300676
    15  H    1.070000   2.736837   4.127917   5.074276   4.990735
    16  H    5.919617   3.396345   2.146700   1.070000   2.146700
    17  H    6.232802   3.872800   3.396345   2.146700   1.070000
    18  Cl   2.563702   2.743718   4.048303   4.562800   4.048303
    19  Cl   5.440665   4.048303   4.562800   4.048303   2.743718
    20  Cl   2.743718   5.286324   6.549198   7.713260   7.819846
    21  Cl   4.048303   6.102800   6.910901   8.294174   8.905600
    22  Cl   4.456874   2.743718   1.760000   2.743718   4.048303
                   11         12         13         14         15
    11  C    0.000000
    12  C    1.401400   0.000000
    13  H    5.074276   4.127917   0.000000
    14  H    7.118798   5.919617   2.471400   0.000000
    15  H    3.918930   2.578650   4.280590   4.942800   0.000000
    16  H    3.396345   3.872800   4.342800   6.814200   6.097816
    17  H    2.146700   3.396345   5.974992   8.329571   5.974992
    18  Cl   2.743718   1.760000   5.111382   6.307038   1.639199
    19  Cl   1.760000   2.743718   6.765486   8.663168   4.725732
    20  Cl   6.797295   5.440665   5.632800   4.890332   2.879094
    21  Cl   8.294174   6.910901   4.890332   2.879094   4.890332
    22  Cl   4.562800   4.048303   1.639199   4.042212   5.111382
                   16         17         18         19         20
    16  H    0.000000
    17  H    2.471400   0.000000
    18  Cl   5.632800   4.890332   0.000000
    19  Cl   4.890332   2.879094   3.161400   0.000000
    20  Cl   8.663168   8.830073   4.342800   7.504200   0.000000
    21  Cl   8.998151   9.975600   6.525618   9.488480   3.161400
    22  Cl   2.879094   4.890332   5.475705   6.322800   6.988795
                   21         22
    21  Cl   0.000000
    22  Cl   6.525618   0.000000
 Stoichiometry    C12H5Cl5
 Framework group  C1[X(C12H5Cl5)]
 Deg. of freedom    60
 Full point group                 C1      NOp   1
 Largest Abelian subgroup         C1      NOp   1
 Largest concise Abelian subgroup C1      NOp   1
                         Standard orientation:                         
 ---------------------------------------------------------------------
 Center     Atomic      Atomic             Coordinates (Angstroms)
 Number     Number       Type             X           Y           Z
 ---------------------------------------------------------------------
      1          6           0        0.374974    0.532384    0.000002
      2          6           0        1.127791    1.714412   -0.000000
      3          6           0        2.527865    1.653467   -0.000002
      4          6           0        3.175122    0.410495   -0.000002
      5          6           0        2.422306   -0.771532    0.000002
      6          6           0        1.022231   -0.710588    0.000004
      7          6           0       -1.163569    0.599356    0.000003
      8          6           0       -1.810827    1.842328    0.000003
      9          6           0       -3.210901    1.903273    0.000003
     10          6           0       -3.963717    0.721246    0.000002
     11          6           0       -3.316460   -0.521727    0.000001
     12          6           0       -1.916386   -0.582671    0.000001
     13          1           0        0.633595    2.663449   -0.000002
     14          1           0        3.102657    2.555972   -0.000004
     15          1           0        0.447439   -1.613092    0.000006
     16          1           0       -3.705096    2.852310    0.000003
     17          1           0       -5.032705    0.767778   -0.000000
     18         17           0       -1.103503   -2.143704   -0.000002
     19         17           0       -4.261913   -2.006220   -0.000005
     20         17           0        3.235188   -2.332565    0.000006
     21         17           0        4.933457    0.333956   -0.000005
     22         17           0       -0.865374    3.326821    0.000000
 ---------------------------------------------------------------------
 Rotational constants (GHZ):           0.4610114           0.1797167           0.1293083
 Standard basis: 6-311+G(d,p) (5D, 7F)
 There are   461 symmetry adapted cartesian basis functions of A   symmetry.
 There are   444 symmetry adapted basis functions of A   symmetry.
   444 basis functions,   737 primitive gaussians,   461 cartesian basis functions
    81 alpha electrons       81 beta electrons
       nuclear repulsion energy      1731.8658053552 Hartrees.
 NAtoms=   22 NActive=   22 NUniq=   22 SFac= 1.00D+00 NAtFMM=   60 NAOKFM=F Big=F
 Integral buffers will be    131072 words long.
 Raffenetti 2 integral format.
 Two-electron integral symmetry is turned on.
 One-electron integrals computed using PRISM.
 NBasis=   444 RedAO= T EigKep=  1.52D-06  NBF=   444
 NBsUse=   438 1.00D-06 EigRej=  7.41D-07 NBFU=   438
 ExpMin= 4.38D-02 ExpMax= 1.06D+05 ExpMxC= 3.62D+03 IAcc=3 IRadAn=         5 AccDes= 0.00D+00
 Harris functional with IExCor=  402 and IRadAn=       5 diagonalized for initial guess.
 HarFok:  IExCor=  402 AccDes= 0.00D+00 IRadAn=         5 IDoV= 1 UseB2=F ITyADJ=14
 ICtDFT=  3500011 ScaDFX=  1.000000  1.000000  1.000000  1.000000
 FoFCou: FMM=F IPFlag=           0 FMFlag=      100000 FMFlg1=           0
         NFxFlg=           0 DoJE=T BraDBF=F KetDBF=T FulRan=T
         wScrn=  0.000000 ICntrl=       500 IOpCl=  0 I1Cent=   200000004 NGrid=           0
         NMat0=    1 NMatS0=      1 NMatT0=    0 NMatD0=    1 NMtDS0=    0 NMtDT0=    0
 Petite list used in FoFCou.
 Requested convergence on RMS density matrix=1.00D-08 within  32 cycles.
 Requested convergence on MAX density matrix=1.00D-06.
 Requested convergence on             energy=1.00D-06.
 No special actions if energy rises.
 SCF Done:  E(RB3LYP) =  -2761.40035596     A.U. after   17 cycles
            NFock= 17  Conv=0.33D-08     -V/T= 2.0025
 QCSCF skips out because SCF is already converged.

 **********************************************************************

            Population analysis using the SCF Density.

 **********************************************************************

 Orbital symmetries:
       Occupied  (A) (A) (A) (A) (A) (A) (A) (A) (A) (A) (A) (A)
                 (A) (A) (A) (A) (A) (A) (A) (A) (A) (A) (A) (A)
                 (A) (A) (A) (A) (A) (A) (A) (A) (A) (A) (A) (A)
                 (A) (A) (A) (A) (A) (A) (A) (A) (A) (A) (A) (A)
                 (A) (A) (A) (A) (A) (A) (A) (A) (A) (A) (A) (A)
                 (A) (A) (A) (A) (A) (A) (A) (A) (A) (A) (A) (A)
                 (A) (A) (A) (A) (A) (A) (A) (A) (A)
       Virtual   (A) (A) (A) (A) (A) (A) (A) (A) (A) (A) (A) (A)
                 (A) (A) (A) (A) (A) (A) (A) (A) (A) (A) (A) (A)
                 (A) (A) (A) (A) (A) (A) (A) (A) (A) (A) (A) (A)
                 (A) (A) (A) (A) (A) (A) (A) (A) (A) (A) (A) (A)
                 (A) (A) (A) (A) (A) (A) (A) (A) (A) (A) (A) (A)
                 (A) (A) (A) (A) (A) (A) (A) (A) (A) (A) (A) (A)
                 (A) (A) (A) (A) (A) (A) (A) (A) (A) (A) (A) (A)
                 (A) (A) (A) (A) (A) (A) (A) (A) (A) (A) (A) (A)
                 (A) (A) (A) (A) (A) (A) (A) (A) (A) (A) (A) (A)
                 (A) (A) (A) (A) (A) (A) (A) (A) (A) (A) (A) (A)
                 (A) (A) (A) (A) (A) (A) (A) (A) (A) (A) (A) (A)
                 (A) (A) (A) (A) (A) (A) (A) (A) (A) (A) (A) (A)
                 (A) (A) (A) (A) (A) (A) (A) (A) (A) (A) (A) (A)
                 (A) (A) (A) (A) (A) (A) (A) (A) (A) (A) (A) (A)
                 (A) (A) (A) (A) (A) (A) (A) (A) (A) (A) (A) (A)
                 (A) (A) (A) (A) (A) (A) (A) (A) (A) (A) (A) (A)
                 (A) (A) (A) (A) (A) (A) (A) (A) (A) (A) (A) (A)
                 (A) (A) (A) (A) (A) (A) (A) (A) (A) (A) (A) (A)
                 (A) (A) (A) (A) (A) (A) (A) (A) (A) (A) (A) (A)
                 (A) (A) (A) (A) (A) (A) (A) (A) (A) (A) (A) (A)
                 (A) (A) (A) (A) (A) (A) (A) (A) (A) (A) (A) (A)
                 (A) (A) (A) (A) (A) (A) (A) (A) (A) (A) (A) (A)
                 (A) (A) (A) (A) (A) (A) (A) (A) (A) (A) (A) (A)
                 (A) (A) (A) (A) (A) (A) (A) (A) (A) (A) (A) (A)
                 (A) (A) (A) (A) (A) (A) (A) (A) (A) (A) (A) (A)
                 (A) (A) (A) (A) (A) (A) (A) (A) (A) (A) (A) (A)
                 (A) (A) (A) (A) (A) (A) (A) (A) (A) (A) (A) (A)
                 (A) (A) (A) (A) (A) (A) (A) (A) (A) (A) (A) (A)
                 (A) (A) (A) (A) (A) (A) (A) (A) (A) (A) (A) (A)
                 (A) (A) (A) (A) (A) (A) (A) (A) (A)
 The electronic state is 1-A.
 Alpha  occ. eigenvalues -- -101.58504-101.58427-101.57988-101.56021-101.56013
 Alpha  occ. eigenvalues --  -10.28326 -10.28030 -10.27885 -10.25566 -10.25307
 Alpha  occ. eigenvalues --  -10.24648 -10.22721 -10.22610 -10.21947 -10.19954
 Alpha  occ. eigenvalues --  -10.18367 -10.17915  -9.50283  -9.50205  -9.49411
 Alpha  occ. eigenvalues --   -9.47465  -9.47456  -7.26692  -7.26630  -7.25906
 Alpha  occ. eigenvalues --   -7.25731  -7.25717  -7.25653  -7.25617  -7.24892
 Alpha  occ. eigenvalues --   -7.24831  -7.23941  -7.23928  -7.22950  -7.22950
 Alpha  occ. eigenvalues --   -7.22898  -7.22884  -0.95765  -0.92499  -0.91809
 Alpha  occ. eigenvalues --   -0.89415  -0.85902  -0.85787  -0.84892  -0.79724
 Alpha  occ. eigenvalues --   -0.76828  -0.75115  -0.74192  -0.66016  -0.64465
 Alpha  occ. eigenvalues --   -0.63794  -0.61081  -0.55003  -0.54477  -0.53644
 Alpha  occ. eigenvalues --   -0.49607  -0.49379  -0.48956  -0.48504  -0.46103
 Alpha  occ. eigenvalues --   -0.46003  -0.45924  -0.42564  -0.42163  -0.41920
 Alpha  occ. eigenvalues --   -0.40835  -0.40730  -0.40126  -0.38018  -0.35082
 Alpha  occ. eigenvalues --   -0.34914  -0.34541  -0.34349  -0.33642  -0.31300
 Alpha  occ. eigenvalues --   -0.30157  -0.30135  -0.28561  -0.27854  -0.26318
 Alpha  occ. eigenvalues --   -0.25100
 Alpha virt. eigenvalues --   -0.07587  -0.06307  -0.04577  -0.03644  -0.01706
 Alpha virt. eigenvalues --   -0.01441  -0.01043  -0.00728   0.01046   0.01285
 Alpha virt. eigenvalues --    0.01872   0.02387   0.03165   0.04075   0.04491
 Alpha virt. eigenvalues --    0.04870   0.05534   0.05551   0.05790   0.06236
 Alpha virt. eigenvalues --    0.06832   0.07619   0.07714   0.08334   0.08462
 Alpha virt. eigenvalues --    0.08503   0.08798   0.09505   0.09875   0.11291
 Alpha virt. eigenvalues --    0.11525   0.11681   0.11748   0.12439   0.12999
 Alpha virt. eigenvalues --    0.13253   0.13581   0.13730   0.13861   0.14215
 Alpha virt. eigenvalues --    0.14775   0.15316   0.15624   0.15685   0.16105
 Alpha virt. eigenvalues --    0.16560   0.16576   0.17150   0.17769   0.18119
 Alpha virt. eigenvalues --    0.18632   0.18887   0.19593   0.19712   0.20113
 Alpha virt. eigenvalues --    0.20399   0.20545   0.20958   0.21757   0.22252
 Alpha virt. eigenvalues --    0.22528   0.22730   0.22870   0.23280   0.23736
 Alpha virt. eigenvalues --    0.24586   0.24823   0.25113   0.25413   0.25947
 Alpha virt. eigenvalues --    0.26374   0.27551   0.27886   0.28415   0.28909
 Alpha virt. eigenvalues --    0.29782   0.30194   0.30954   0.31337   0.31796
 Alpha virt. eigenvalues --    0.32661   0.33168   0.33460   0.34520   0.35177
 Alpha virt. eigenvalues --    0.37087   0.38041   0.38964   0.41239   0.42338
 Alpha virt. eigenvalues --    0.42600   0.42827   0.43664   0.43929   0.44454
 Alpha virt. eigenvalues --    0.44915   0.45688   0.45942   0.46400   0.47724
 Alpha virt. eigenvalues --    0.48208   0.49003   0.49444   0.49672   0.50738
 Alpha virt. eigenvalues --    0.51153   0.51305   0.51899   0.53224   0.54553
 Alpha virt. eigenvalues --    0.55301   0.56349   0.57005   0.58320   0.58697
 Alpha virt. eigenvalues --    0.59088   0.59178   0.59751   0.60371   0.61529
 Alpha virt. eigenvalues --    0.61673   0.63197   0.63252   0.63590   0.63692
 Alpha virt. eigenvalues --    0.66392   0.66765   0.67001   0.67867   0.68281
 Alpha virt. eigenvalues --    0.69113   0.70378   0.72711   0.75693   0.77054
 Alpha virt. eigenvalues --    0.78931   0.79351   0.79452   0.81728   0.81926
 Alpha virt. eigenvalues --    0.82321   0.82541   0.83766   0.83977   0.84657
 Alpha virt. eigenvalues --    0.84758   0.85396   0.85589   0.86230   0.86554
 Alpha virt. eigenvalues --    0.86950   0.87465   0.87971   0.88476   0.88838
 Alpha virt. eigenvalues --    0.89257   0.90307   0.90981   0.92374   0.92905
 Alpha virt. eigenvalues --    0.93205   0.93698   0.94281   0.94622   0.95286
 Alpha virt. eigenvalues --    0.95410   0.95659   0.96841   0.97639   0.98197
 Alpha virt. eigenvalues --    0.99007   0.99309   1.00528   1.01104   1.02476
 Alpha virt. eigenvalues --    1.02583   1.07488   1.07524   1.08462   1.10221
 Alpha virt. eigenvalues --    1.11178   1.11931   1.12902   1.16617   1.19824
 Alpha virt. eigenvalues --    1.20200   1.20582   1.24014   1.25651   1.25946
 Alpha virt. eigenvalues --    1.26658   1.26736   1.27993   1.28606   1.30309
 Alpha virt. eigenvalues --    1.30641   1.33725   1.34593   1.36732   1.39112
 Alpha virt. eigenvalues --    1.42213   1.43851   1.47006   1.48418   1.49332
 Alpha virt. eigenvalues --    1.50263   1.54560   1.55584   1.55726   1.57935
 Alpha virt. eigenvalues --    1.59120   1.61465   1.65452   1.65699   1.65757
 Alpha virt. eigenvalues --    1.68005   1.69791   1.71298   1.73278   1.76012
 Alpha virt. eigenvalues --    1.78983   1.81073   1.82037   1.82919   1.84269
 Alpha virt. eigenvalues --    1.85511   1.85806   1.86714   1.89567   1.92344
 Alpha virt. eigenvalues --    1.92774   1.93168   1.94233   1.95463   1.96445
 Alpha virt. eigenvalues --    1.99728   2.02342   2.03039   2.05981   2.06678
 Alpha virt. eigenvalues --    2.11073   2.12074   2.16946   2.17377   2.20666
 Alpha virt. eigenvalues --    2.22187   2.23901   2.24466   2.24864   2.24968
 Alpha virt. eigenvalues --    2.27056   2.27057   2.29753   2.31281   2.34087
 Alpha virt. eigenvalues --    2.34552   2.35505   2.36900   2.41110   2.43062
 Alpha virt. eigenvalues --    2.43653   2.44657   2.47818   2.50759   2.50872
 Alpha virt. eigenvalues --    2.53496   2.54149   2.56629   2.59632   2.60783
 Alpha virt. eigenvalues --    2.63226   2.63663   2.64349   2.65779   2.67661
 Alpha virt. eigenvalues --    2.71245   2.72563   2.72826   2.73611   2.73901
 Alpha virt. eigenvalues --    2.74070   2.78690   2.79326   2.80463   2.82765
 Alpha virt. eigenvalues --    2.83386   2.84531   2.85758   2.90750   2.92600
 Alpha virt. eigenvalues --    2.98120   3.04456   3.05769   3.07246   3.10351
 Alpha virt. eigenvalues --    3.10609   3.12831   3.17031   3.19607   3.20236
 Alpha virt. eigenvalues --    3.24892   3.25890   3.33502   3.37810   3.39492
 Alpha virt. eigenvalues --    3.43402   3.54376   3.57032   3.62210   3.68797
 Alpha virt. eigenvalues --    3.73302   3.83892   3.88824   3.99026   4.04851
 Alpha virt. eigenvalues --    4.12381   4.20284   4.44247   4.78776   4.83687
 Alpha virt. eigenvalues --    9.75443   9.77017   9.80834   9.85950   9.87485
 Alpha virt. eigenvalues --   23.35690  23.53368  23.80674  23.85241  23.87760
 Alpha virt. eigenvalues --   23.90913  23.95764  23.96842  24.00791  24.06241
 Alpha virt. eigenvalues --   24.07989  24.13746  25.77141  25.79148  25.82954
 Alpha virt. eigenvalues --   25.86355  25.88608  26.11683  26.13665  26.15466
 Alpha virt. eigenvalues --   26.47135  26.51593  26.63162  26.71972  26.77157
 Alpha virt. eigenvalues --   26.79179  26.90551 215.74502 215.76273 215.80482
 Alpha virt. eigenvalues --  215.88236 215.89974
          Condensed to atoms (all electrons):
               1          2          3          4          5          6
     1  C   20.949929  -3.308187  -1.379211   0.799179  -4.064649   2.916872
     2  C   -3.308187  21.418050  -3.154703  -1.255658   1.337295  -4.827864
     3  C   -1.379211  -3.154703  17.134428   0.416269  -5.043159   0.901299
     4  C    0.799179  -1.255658   0.416269  17.914163  -5.431368  -6.287962
     5  C   -4.064649   1.337295  -5.043159  -5.431368  22.360190   2.219600
     6  C    2.916872  -4.827864   0.901299  -6.287962   2.219600  18.267998
     7  C    7.694572  -1.247690  -1.228211  -0.014738  -2.694692  -0.168746
     8  C   -3.311438   1.035633  -0.536823   0.718045  -2.242628  -3.565742
     9  C   -5.690990  -1.362530   1.053024  -0.031915  -1.047139  -0.801627
    10  C    0.075986   0.615457   0.070015   0.070051   0.295042   0.413357
    11  C   -4.158669  -0.345389  -0.818385   0.209480   1.354514  -1.375965
    12  C   -3.021476  -2.108833  -0.822926  -0.639655  -1.435256   0.446002
    13  H   -0.328815   0.348490   0.363341   0.022024  -0.082568   0.000766
    14  H    0.107979   0.071094   0.184759   0.018536  -0.022203  -0.025301
    15  H   -0.210469  -0.018400  -0.080938   0.067981   0.045130   0.414356
    16  H    0.012287   0.006255  -0.000860   0.000203   0.000296   0.002197
    17  H   -0.000010   0.000353   0.000166   0.000017  -0.000240   0.000308
    18  Cl   0.237017   0.181912   0.114279   0.320915  -0.556694  -1.818189
    19  Cl  -0.153369  -0.045488  -0.002345  -0.010040  -0.004276  -0.017541
    20  Cl  -0.988634   0.404770   0.130147  -0.618067   0.220769   0.580397
    21  Cl  -0.091591  -0.265260   0.144227  -0.310836   0.049861  -0.163498
    22  Cl   0.738628  -0.763229  -1.111137  -0.194557   0.338554   0.166879
               7          8          9         10         11         12
     1  C    7.694572  -3.311438  -5.690990   0.075986  -4.158669  -3.021476
     2  C   -1.247690   1.035633  -1.362530   0.615457  -0.345389  -2.108833
     3  C   -1.228211  -0.536823   1.053024   0.070015  -0.818385  -0.822926
     4  C   -0.014738   0.718045  -0.031915   0.070051   0.209480  -0.639655
     5  C   -2.694692  -2.242628  -1.047139   0.295042   1.354514  -1.435256
     6  C   -0.168746  -3.565742  -0.801627   0.413357  -1.375965   0.446002
     7  C   20.073064  -2.536531  -6.453860   1.637280  -7.622220   0.104514
     8  C   -2.536531  21.344739  -3.451161  -3.242291   3.133921  -1.088499
     9  C   -6.453860  -3.451161  18.947582   1.951550  -1.172786   3.225918
    10  C    1.637280  -3.242291   1.951550  15.835429  -5.467721  -5.532126
    11  C   -7.622220   3.133921  -1.172786  -5.467721  21.425624  -0.142897
    12  C    0.104514  -1.088499   3.225918  -5.532126  -0.142897  18.160516
    13  H   -0.127896   0.060151   0.188214   0.029691  -0.014800  -0.002928
    14  H    0.019115   0.000469  -0.003389  -0.000102   0.000617   0.005365
    15  H   -0.011771   0.038591  -0.003779   0.001390   0.066022   0.128485
    16  H    0.089533   0.017173   0.338247  -0.015344  -0.064531  -0.016198
    17  H    0.016725   0.005003  -0.081942   0.336844   0.026805   0.046636
    18  Cl  -0.167697   0.497824   0.438962   0.549462   0.295517  -1.609967
    19  Cl  -0.634492   0.138404   0.187425  -0.595035  -0.327131   0.802733
    20  Cl  -0.332947  -0.159941  -0.023242   0.005616  -0.004108  -0.031650
    21  Cl  -0.050696  -0.013687  -0.003135  -0.000964  -0.002533  -0.035215
    22  Cl   0.209783  -0.825925  -0.241611  -0.255805   0.309280   0.149523
              13         14         15         16         17         18
     1  C   -0.328815   0.107979  -0.210469   0.012287  -0.000010   0.237017
     2  C    0.348490   0.071094  -0.018400   0.006255   0.000353   0.181912
     3  C    0.363341   0.184759  -0.080938  -0.000860   0.000166   0.114279
     4  C    0.022024   0.018536   0.067981   0.000203   0.000017   0.320915
     5  C   -0.082568  -0.022203   0.045130   0.000296  -0.000240  -0.556694
     6  C    0.000766  -0.025301   0.414356   0.002197   0.000308  -1.818189
     7  C   -0.127896   0.019115  -0.011771   0.089533   0.016725  -0.167697
     8  C    0.060151   0.000469   0.038591   0.017173   0.005003   0.497824
     9  C    0.188214  -0.003389  -0.003779   0.338247  -0.081942   0.438962
    10  C    0.029691  -0.000102   0.001390  -0.015344   0.336844   0.549462
    11  C   -0.014800   0.000617   0.066022  -0.064531   0.026805   0.295517
    12  C   -0.002928   0.005365   0.128485  -0.016198   0.046636  -1.609967
    13  H    0.712636  -0.014430  -0.000424   0.000010  -0.000003   0.002598
    14  H   -0.014430   0.524764   0.000124   0.000000  -0.000000  -0.000186
    15  H   -0.000424   0.000124   0.682725   0.000000   0.000002  -0.236199
    16  H    0.000010   0.000000   0.000000   0.502578  -0.007533   0.000562
    17  H   -0.000003  -0.000000   0.000002  -0.007533   0.500137   0.000599
    18  Cl   0.002598  -0.000186  -0.236199   0.000562   0.000599  18.363099
    19  Cl   0.000098  -0.000000   0.004641  -0.000124  -0.005164  -0.229981
    20  Cl   0.000400  -0.000447  -0.032929   0.000000  -0.000000  -0.091652
    21  Cl   0.000905  -0.010656   0.002069   0.000000   0.000000   0.002606
    22  Cl  -0.285820   0.002587   0.001827  -0.020344   0.002544  -0.034541
              19         20         21         22
     1  C   -0.153369  -0.988634  -0.091591   0.738628
     2  C   -0.045488   0.404770  -0.265260  -0.763229
     3  C   -0.002345   0.130147   0.144227  -1.111137
     4  C   -0.010040  -0.618067  -0.310836  -0.194557
     5  C   -0.004276   0.220769   0.049861   0.338554
     6  C   -0.017541   0.580397  -0.163498   0.166879
     7  C   -0.634492  -0.332947  -0.050696   0.209783
     8  C    0.138404  -0.159941  -0.013687  -0.825925
     9  C    0.187425  -0.023242  -0.003135  -0.241611
    10  C   -0.595035   0.005616  -0.000964  -0.255805
    11  C   -0.327131  -0.004108  -0.002533   0.309280
    12  C    0.802733  -0.031650  -0.035215   0.149523
    13  H    0.000098   0.000400   0.000905  -0.285820
    14  H   -0.000000  -0.000447  -0.010656   0.002587
    15  H    0.004641  -0.032929   0.002069   0.001827
    16  H   -0.000124   0.000000   0.000000  -0.020344
    17  H   -0.005164  -0.000000   0.000000   0.002544
    18  Cl  -0.229981  -0.091652   0.002606  -0.034541
    19  Cl  17.353299   0.000989  -0.000003  -0.004905
    20  Cl   0.000989  17.608427  -0.180366   0.005786
    21  Cl  -0.000003  -0.180366  17.400995  -0.005048
    22  Cl  -0.004905   0.005786  -0.005048  18.160356
 Mulliken charges:
               1
     1  C   -0.824943
     2  C   -0.716078
     3  C   -0.333257
     4  C    0.237934
     5  C    0.403621
     6  C   -1.277595
     7  C   -0.552398
     8  C   -0.015287
     9  C    0.038184
    10  C   -0.777781
    11  C    0.695355
    12  C   -0.582068
    13  H    0.128358
    14  H    0.141305
    15  H    0.141566
    16  H    0.155593
    17  H    0.158753
    18  Cl   0.739752
    19  Cl   0.542304
    20  Cl   0.506684
    21  Cl   0.532825
    22  Cl   0.657174
 Sum of Mulliken charges =  -0.00000
 Mulliken charges with hydrogens summed into heavy atoms:
               1
     1  C   -0.824943
     2  C   -0.587720
     3  C   -0.191953
     4  C    0.237934
     5  C    0.403621
     6  C   -1.136029
     7  C   -0.552398
     8  C   -0.015287
     9  C    0.193777
    10  C   -0.619029
    11  C    0.695355
    12  C   -0.582068
    18  Cl   0.739752
    19  Cl   0.542304
    20  Cl   0.506684
    21  Cl   0.532825
    22  Cl   0.657174
 Electronic spatial extent (au):  <R**2>=           7266.6187
 Charge=             -0.0000 electrons
 Dipole moment (field-independent basis, Debye):
    X=             -3.5960    Y=              2.5493    Z=             -0.0000  Tot=              4.4079
 Quadrupole moment (field-independent basis, Debye-Ang):
   XX=           -133.0326   YY=           -127.4915   ZZ=           -135.7071
   XY=             -2.2335   XZ=             -0.0000   YZ=             -0.0000
 Traceless Quadrupole moment (field-independent basis, Debye-Ang):
   XX=             -0.9555   YY=              4.5856   ZZ=             -3.6300
   XY=             -2.2335   XZ=             -0.0000   YZ=             -0.0000
 Octapole moment (field-independent basis, Debye-Ang**2):
  XXX=            -77.5378  YYY=             -3.5825  ZZZ=             -0.0001  XYY=              4.6489
  XXY=             33.3964  XXZ=             -0.0000  XZZ=              3.8905  YZZ=             -7.8563
  YYZ=             -0.0001  XYZ=             -0.0000
 Hexadecapole moment (field-independent basis, Debye-Ang**3):
 XXXX=          -6674.7185 YYYY=          -2560.9553 ZZZZ=           -158.0875 XXXY=            -92.6828
 XXXZ=              0.0002 YYYX=             35.5470 YYYZ=             -0.0001 ZZZX=              0.0001
 ZZZY=             -0.0000 XXYY=          -1516.1601 XXZZ=          -1201.1577 YYZZ=           -486.7232
 XXYZ=              0.0001 YYXZ=              0.0000 ZZXY=              6.1757
 N-N= 1.731865805355D+03 E-N=-1.000060128063D+04  KE= 2.754527183961D+03
 Calling FoFJK, ICntrl=      2127 FMM=F ISym2X=0 I1Cent= 0 IOpClX= 0 NMat=1 NMatS=1 NMatT=0.
 ***** Axes restored to original set *****
 -------------------------------------------------------------------
 Center     Atomic                   Forces (Hartrees/Bohr)
 Number     Number              X              Y              Z
 -------------------------------------------------------------------
      1        6          -0.014452068   -0.022261404    0.000580314
      2        6           0.006383752    0.054612718    0.008153781
      3        6          -0.021056974    0.000579541    0.007046265
      4        6           0.002149316    0.001968714   -0.000338568
      5        6           0.004896734   -0.008709033   -0.003248847
      6        6           0.044623899    0.032964973   -0.008510623
      7        6           0.026387444    0.042645375   -0.000684193
      8        6          -0.016957984   -0.006524456    0.004361669
      9        6          -0.002898533    0.012781092    0.003355279
     10        6           0.010050176    0.015443169   -0.000410703
     11        6          -0.003049946    0.000411060    0.001082224
     12        6          -0.001634026   -0.008357707   -0.001031399
     13        1           0.004834297    0.050619161    0.007914038
     14        1           0.008479919    0.001592996   -0.002494558
     15        1           0.039557718    0.028358331   -0.007706896
     16        1           0.003886131   -0.007334187   -0.002657705
     17        1          -0.004703721   -0.006666439    0.000297605
     18       17          -0.081967284   -0.060136945    0.015710772
     19       17           0.006673472   -0.004026790   -0.002954989
     20       17          -0.002007528   -0.005891430   -0.000445048
     21       17           0.001477287   -0.005317936   -0.001485437
     22       17          -0.010672081   -0.106750802   -0.016532978
 -------------------------------------------------------------------
 Cartesian Forces:  Max     0.106750802 RMS     0.024257072

 GradGradGradGradGradGradGradGradGradGradGradGradGradGradGradGradGradGrad
 Berny optimization.
 FormGI is forming the generalized inverse of G from B-inverse, IUseBI=4.
 Internal  Forces:  Max     0.199457815 RMS     0.049513144
 Search for a local minimum.
 Step number   1 out of a maximum of  121
 All quantities printed in internal units (Hartrees-Bohrs-Radians)
 Mixed Optimization -- RFO/linear search
 Second derivative matrix not updated -- first step.
 ITU=  0
     Eigenvalues ---    0.00237   0.01506   0.01506   0.02070   0.02070
     Eigenvalues ---    0.02070   0.02070   0.02070   0.02070   0.02070
     Eigenvalues ---    0.02070   0.02070   0.02070   0.02070   0.02070
     Eigenvalues ---    0.02070   0.02070   0.02070   0.02070   0.16000
     Eigenvalues ---    0.16000   0.16000   0.16000   0.16000   0.22375
     Eigenvalues ---    0.22489   0.23491   0.24492   0.24610   0.25000
     Eigenvalues ---    0.25000   0.25000   0.25000   0.25000   0.25000
     Eigenvalues ---    0.25000   0.25000   0.28519   0.29539   0.29539
     Eigenvalues ---    0.29539   0.29539   0.29539   0.37230   0.37230
     Eigenvalues ---    0.37230   0.37230   0.37230   0.41393   0.41540
     Eigenvalues ---    0.41697   0.41720   0.45389   0.45389   0.45389
     Eigenvalues ---    0.45389   0.45389   0.45389   0.45389   0.45389
 RFO step:  Lambda=-3.98602392D-01 EMin= 2.36824242D-03
 Linear search not attempted -- first point.
 Maximum step size (   0.300) exceeded in Quadratic search.
    -- Step size scaled by   0.391
 Iteration  1 RMS(Cart)=  0.09782221 RMS(Int)=  0.00389937
 Iteration  2 RMS(Cart)=  0.00446304 RMS(Int)=  0.00015910
 Iteration  3 RMS(Cart)=  0.00000829 RMS(Int)=  0.00015906
 Iteration  4 RMS(Cart)=  0.00000000 RMS(Int)=  0.00015906
 Variable       Old X    -DE/DX   Delta X   Delta X   Delta X     New X
                                 (Linear)    (Quad)   (Total)
    R1        2.64826   0.03325   0.00000   0.01578   0.01593   2.66419
    R2        2.64826   0.03096   0.00000   0.01477   0.01492   2.66318
    R3        2.91018   0.14874   0.00000   0.08501   0.08501   2.99518
    R4        2.64826  -0.00737   0.00000  -0.00342  -0.00342   2.64485
    R5        2.02201  -0.04286   0.00000  -0.02173  -0.02173   2.00028
    R6        2.64826  -0.04150   0.00000  -0.01960  -0.01975   2.62851
    R7        2.02201   0.00887   0.00000   0.00450   0.00450   2.02650
    R8        2.64826  -0.03469   0.00000  -0.01644  -0.01659   2.63167
    R9        3.32592  -0.00384   0.00000  -0.00216  -0.00216   3.32376
   R10        2.64826  -0.00931   0.00000  -0.00423  -0.00423   2.64404
   R11        3.32592  -0.00420   0.00000  -0.00237  -0.00237   3.32355
   R12        2.02201  -0.04060   0.00000  -0.02058  -0.02058   2.00143
   R13        2.64826   0.13941   0.00000   0.06585   0.06615   2.71442
   R14        2.64826   0.13967   0.00000   0.06614   0.06644   2.71471
   R15        2.64826  -0.01161   0.00000  -0.00549  -0.00550   2.64276
   R16        3.32592  -0.00731   0.00000  -0.00412  -0.00412   3.32180
   R17        2.64826  -0.06343   0.00000  -0.03119  -0.03151   2.61676
   R18        2.02201   0.00872   0.00000   0.00442   0.00442   2.02642
   R19        2.64826  -0.06199   0.00000  -0.03036  -0.03067   2.61759
   R20        2.02201   0.00813   0.00000   0.00412   0.00412   2.02613
   R21        2.64826  -0.00258   0.00000  -0.00101  -0.00102   2.64724
   R22        3.32592  -0.00717   0.00000  -0.00404  -0.00404   3.32188
   R23        3.32592  -0.00930   0.00000  -0.00524  -0.00524   3.32068
    A1        2.09440  -0.11101   0.00000  -0.06597  -0.06566   2.02874
    A2        2.09440   0.05878   0.00000   0.03496   0.03481   2.12920
    A3        2.09440   0.05222   0.00000   0.03101   0.03085   2.12525
    A4        2.09440   0.05364   0.00000   0.03397   0.03412   2.12852
    A5        2.09440   0.00197   0.00000   0.00315   0.00308   2.09747
    A6        2.09440  -0.05561   0.00000  -0.03713  -0.03720   2.05719
    A7        2.09440   0.01468   0.00000   0.00780   0.00764   2.10204
    A8        2.09440  -0.00590   0.00000  -0.00289  -0.00281   2.09158
    A9        2.09440  -0.00878   0.00000  -0.00491  -0.00483   2.08957
   A10        2.09440  -0.02550   0.00000  -0.01745  -0.01776   2.07664
   A11        2.09440   0.00571   0.00000   0.00448   0.00463   2.09903
   A12        2.09440   0.01980   0.00000   0.01297   0.01312   2.10752
   A13        2.09440   0.01398   0.00000   0.00716   0.00701   2.10141
   A14        2.09440   0.00068   0.00000   0.00104   0.00112   2.09551
   A15        2.09440  -0.01466   0.00000  -0.00821  -0.00813   2.08627
   A16        2.09440   0.05420   0.00000   0.03449   0.03464   2.12904
   A17        2.09440   0.00114   0.00000   0.00251   0.00244   2.09683
   A18        2.09440  -0.05534   0.00000  -0.03700  -0.03708   2.05732
   A19        2.09440   0.07410   0.00000   0.04196   0.04163   2.13603
   A20        2.09440   0.06665   0.00000   0.03748   0.03714   2.13154
   A21        2.09440  -0.14076   0.00000  -0.07944  -0.07877   2.01562
   A22        2.09440   0.03871   0.00000   0.02562   0.02594   2.12033
   A23        2.09440   0.16075   0.00000   0.09570   0.09554   2.18994
   A24        2.09440  -0.19946   0.00000  -0.12132  -0.12148   1.97291
   A25        2.09440   0.03958   0.00000   0.02172   0.02139   2.11579
   A26        2.09440  -0.01979   0.00000  -0.01086  -0.01070   2.08370
   A27        2.09440  -0.01979   0.00000  -0.01086  -0.01070   2.08370
   A28        2.09440  -0.01151   0.00000  -0.01304  -0.01369   2.08071
   A29        2.09440   0.00651   0.00000   0.00705   0.00737   2.10176
   A30        2.09440   0.00501   0.00000   0.00600   0.00632   2.10072
   A31        2.09440   0.03959   0.00000   0.02142   0.02109   2.11548
   A32        2.09440  -0.02686   0.00000  -0.01496  -0.01480   2.07960
   A33        2.09440  -0.01273   0.00000  -0.00645  -0.00629   2.08810
   A34        2.09440   0.03440   0.00000   0.02372   0.02404   2.11843
   A35        2.09440   0.15317   0.00000   0.09078   0.09063   2.18502
   A36        2.09440  -0.18756   0.00000  -0.11451  -0.11466   1.97973
    D1        0.00000   0.00000   0.00000   0.00000   0.00000   0.00000
    D2        3.14159  -0.00000   0.00000   0.00000   0.00000   3.14159
    D3       -3.14159  -0.00000   0.00000  -0.00000  -0.00000  -3.14159
    D4       -0.00000  -0.00000   0.00000  -0.00000  -0.00000  -0.00000
    D5       -0.00000  -0.00000   0.00000  -0.00000  -0.00000  -0.00000
    D6        3.14159  -0.00000   0.00000  -0.00000  -0.00000   3.14159
    D7        3.14159   0.00000   0.00000   0.00000   0.00000   3.14159
    D8        0.00000  -0.00000   0.00000  -0.00000  -0.00000  -0.00000
    D9       -0.00000  -0.00000   0.00000  -0.00000  -0.00000  -0.00000
   D10        3.14159  -0.00000   0.00000  -0.00000  -0.00000   3.14159
   D11        3.14159  -0.00000   0.00000  -0.00000  -0.00000   3.14159
   D12       -0.00000  -0.00000   0.00000  -0.00000  -0.00000  -0.00000
   D13        0.00000  -0.00000   0.00000  -0.00000  -0.00000   0.00000
   D14        3.14159  -0.00000   0.00000  -0.00000  -0.00000   3.14159
   D15       -3.14159  -0.00000   0.00000  -0.00000  -0.00000  -3.14159
   D16        0.00000  -0.00000   0.00000  -0.00000  -0.00000   0.00000
   D17       -0.00000  -0.00000   0.00000   0.00000   0.00000  -0.00000
   D18        3.14159   0.00000   0.00000   0.00000   0.00000   3.14159
   D19        3.14159  -0.00000   0.00000  -0.00000  -0.00000   3.14159
   D20        0.00000  -0.00000   0.00000  -0.00000  -0.00000   0.00000
   D21        0.00000   0.00000   0.00000   0.00000   0.00000   0.00000
   D22       -3.14159   0.00000   0.00000   0.00000   0.00000  -3.14159
   D23       -3.14159  -0.00000   0.00000  -0.00000  -0.00000  -3.14159
   D24        0.00000   0.00000   0.00000   0.00000   0.00000   0.00000
   D25       -0.00000   0.00000   0.00000   0.00000   0.00000  -0.00000
   D26        3.14159   0.00000   0.00000   0.00000   0.00000   3.14159
   D27        3.14159   0.00000   0.00000  -0.00000  -0.00000   3.14159
   D28       -0.00000   0.00000   0.00000   0.00000   0.00000  -0.00000
   D29        3.14159   0.00000   0.00000   0.00000   0.00000   3.14159
   D30        0.00000   0.00000   0.00000   0.00000   0.00000   0.00000
   D31        0.00000   0.00000   0.00000   0.00000   0.00000   0.00000
   D32       -3.14159  -0.00000   0.00000  -0.00000  -0.00000  -3.14159
   D33       -3.14159  -0.00000   0.00000  -0.00000  -0.00000  -3.14159
   D34        0.00000  -0.00000   0.00000  -0.00000  -0.00000  -0.00000
   D35       -0.00000   0.00000   0.00000   0.00000   0.00000  -0.00000
   D36        3.14159  -0.00000   0.00000  -0.00000  -0.00000   3.14159
   D37       -0.00000  -0.00000   0.00000  -0.00000  -0.00000  -0.00000
   D38        3.14159  -0.00000   0.00000  -0.00000  -0.00000   3.14159
   D39        3.14159   0.00000   0.00000   0.00000   0.00000   3.14159
   D40       -0.00000   0.00000   0.00000   0.00000   0.00000  -0.00000
   D41       -0.00000   0.00000   0.00000   0.00000   0.00000  -0.00000
   D42       -3.14159  -0.00000   0.00000  -0.00000  -0.00000  -3.14159
   D43        3.14159   0.00000   0.00000   0.00000   0.00000   3.14159
   D44        0.00000   0.00000   0.00000   0.00000   0.00000   0.00000
   D45        0.00000   0.00000   0.00000   0.00000   0.00000   0.00000
   D46       -3.14159  -0.00000   0.00000  -0.00000  -0.00000  -3.14159
   D47        3.14159   0.00000   0.00000   0.00000   0.00000   3.14159
   D48        0.00000  -0.00000   0.00000  -0.00000  -0.00000   0.00000
   D49        0.00000  -0.00000   0.00000  -0.00000  -0.00000   0.00000
   D50       -3.14159   0.00000   0.00000   0.00000   0.00000  -3.14159
   D51        3.14159   0.00000   0.00000   0.00000   0.00000   3.14159
   D52       -0.00000   0.00000   0.00000   0.00000   0.00000  -0.00000
         Item               Value     Threshold  Converged?
 Maximum Force            0.199458     0.000450     NO 
 RMS     Force            0.049513     0.000300     NO 
 Maximum Displacement     0.554992     0.001800     NO 
 RMS     Displacement     0.099223     0.001200     NO 
 Predicted change in Energy=-1.432455D-01
 GradGradGradGradGradGradGradGradGradGradGradGradGradGradGradGradGradGrad

                          Input orientation:                          
 ---------------------------------------------------------------------
 Center     Atomic      Atomic             Coordinates (Angstroms)
 Number     Number       Type             X           Y           Z
 ---------------------------------------------------------------------
      1          6           0       -0.184579    0.797060   -0.003941
      2          6           0        1.156689    0.875059   -0.431179
      3          6           0        1.863173    2.083242   -0.437025
      4          6           0        1.251777    3.259094   -0.014761
      5          6           0       -0.072690    3.214930    0.413294
      6          6           0       -0.775451    2.005068    0.417599
      7          6           0       -0.985517   -0.570647    0.003065
      8          6           0       -0.396534   -1.809319   -0.423614
      9          6           0       -1.120832   -3.005552   -0.409653
     10          6           0       -2.437602   -3.042525    0.017223
     11          6           0       -3.045255   -1.870843    0.437472
     12          6           0       -2.352218   -0.653422    0.437789
     13          1           0        1.661525    0.005083   -0.760887
     14          1           0        2.882647    2.103608   -0.769070
     15          1           0       -1.780614    2.017443    0.751077
     16          1           0       -0.647706   -3.910998   -0.735579
     17          1           0       -2.980843   -3.966880    0.022597
     18         17           0       -3.316759    0.699527    1.009664
     19         17           0       -4.716901   -1.919700    0.979038
     20         17           0       -0.873622    4.684695    0.953197
     21         17           0        2.143873    4.774897   -0.023983
     22         17           0        1.250686   -2.009182   -1.003835
 ---------------------------------------------------------------------
                    Distance matrix (angstroms):
                    1          2          3          4          5
     1  C    0.000000
     2  C    1.409829   0.000000
     3  C    2.456647   1.399593   0.000000
     4  C    2.850412   2.421997   1.390949   0.000000
     5  C    2.456155   2.774798   2.398192   1.392622   0.000000
     6  C    1.409294   2.393849   2.774676   2.422637   1.399163
     7  C    1.584983   2.620626   3.918142   4.435394   3.915627
     8  C    2.648445   3.101362   4.500943   5.345363   5.103760
     9  C    3.937135   4.499634   5.899225   6.710515   6.361623
    10  C    4.451850   5.335490   6.706451   7.302256   6.701150
    11  C    3.936498   5.094199   6.363347   6.707105   5.890824
    12  C    2.645313   3.924766   5.101387   5.338667   4.490100
    13  H    2.146695   1.058502   2.112888   3.363508   3.832666
    14  H    3.420580   2.145328   1.072379   2.136321   3.371504
    15  H    2.146325   3.366084   3.833158   3.365056   2.113073
    16  H    4.787023   5.123948   6.505732   7.452371   7.240815
    17  H    5.524031   6.385096   7.764001   8.374435   7.758117
    18  Cl   3.293547   4.703039   5.553311   5.335949   4.148119
    19  Cl   5.374847   6.655708   7.831102   7.964463   6.946452
    20  Cl   4.062585   4.533430   4.023720   2.736166   1.758748
    21  Cl   4.609260   4.043399   2.737590   1.758857   2.745516
    22  Cl   3.306777   2.942043   4.176643   5.360317   5.572336
                    6          7          8          9         10
     6  C    0.000000
     7  C    2.617303   0.000000
     8  C    3.924381   1.436407   0.000000
     9  C    5.090182   2.473340   1.398491   0.000000
    10  C    5.329281   2.866868   2.425096   1.384728   0.000000
    11  C    4.491669   2.474215   2.785853   2.389266   1.385168
    12  C    3.090982   1.436561   2.429570   2.786931   2.427339
    13  H    3.365654   2.814591   2.764311   4.114463   5.166837
    14  H    3.847021   4.765556   5.116968   6.500811   7.443519
    15  H    1.059110   2.808898   4.235526   5.197411   5.154944
    16  H    6.028762   3.437682   2.139501   1.072338   2.127130
    17  H    6.378396   3.939049   3.396001   2.137903   1.072181
    18  Cl   2.917743   2.839238   4.108078   4.534773   3.969988
    19  Cl   5.590532   4.086037   4.543698   4.004903   2.716805
    20  Cl   2.734392   5.341712   6.655482   7.813986   7.939269
    21  Cl   4.048382   6.194243   7.068611   8.446444   9.061108
    22  Cl   4.715921   2.843209   1.757822   2.640058   3.964066
                   11         12         13         14         15
    11  C    0.000000
    12  C    1.400862   0.000000
    13  H    5.206625   4.240352   0.000000
    14  H    7.238233   6.038338   2.427964   0.000000
    15  H    4.100784   2.749254   4.264265   4.905535   0.000000
    16  H    3.359542   3.859268   4.546304   6.974238   6.216111
    17  H    2.137672   3.398022   6.159701   8.476914   6.146816
    18  Cl   2.647247   1.757228   5.329204   6.600603   2.040468
    19  Cl   1.757863   2.736446   6.885961   8.774737   4.916792
    20  Cl   6.925102   5.563037   5.591407   4.872142   2.824486
    21  Cl   8.444278   7.063619   4.850445   2.869970   4.858587
    22  Cl   4.533389   4.110630   2.070042   4.430965   5.336872
                   16         17         18         19         20
    16  H    0.000000
    17  H    2.453871   0.000000
    18  Cl   5.605948   4.781474   0.000000
    19  Cl   4.843917   2.849495   2.970133   0.000000
    20  Cl   8.762930   8.952996   4.674791   7.641302   0.000000
    21  Cl   9.151177  10.133288   6.891702   9.638148   3.173057
    22  Cl   2.700510   4.774095   5.679158   6.289029   7.290449
                   21         22
    21  Cl   0.000000
    22  Cl   6.912425   0.000000
 Stoichiometry    C12H5Cl5
 Framework group  C1[X(C12H5Cl5)]
 Deg. of freedom    60
 Full point group                 C1      NOp   1
 Largest Abelian subgroup         C1      NOp   1
 Largest concise Abelian subgroup C1      NOp   1
                         Standard orientation:                         
 ---------------------------------------------------------------------
 Center     Atomic      Atomic             Coordinates (Angstroms)
 Number     Number       Type             X           Y           Z
 ---------------------------------------------------------------------
      1          6           0        0.456476    0.531611    0.000002
      2          6           0        1.243704    1.701179   -0.000001
      3          6           0        2.642454    1.652599   -0.000003
      4          6           0        3.305062    0.429616   -0.000003
      5          6           0        2.555400   -0.744012    0.000002
      6          6           0        1.157238   -0.691108    0.000004
      7          6           0       -1.127590    0.585543    0.000003
      8          6           0       -1.855224    1.824015    0.000003
      9          6           0       -3.253479    1.849665    0.000003
     10          6           0       -3.992937    0.678907    0.000002
     11          6           0       -3.331831   -0.538315    0.000001
     12          6           0       -1.932526   -0.604325    0.000001
     13          1           0        0.781692    2.653529   -0.000003
     14          1           0        3.207995    2.563730   -0.000006
     15          1           0        0.627001   -1.607929    0.000007
     16          1           0       -3.762456    2.793514    0.000004
     17          1           0       -5.064556    0.713606    0.000001
     18         17           0       -1.310545   -2.247794   -0.000003
     19         17           0       -4.272197   -2.023507   -0.000005
     20         17           0        3.363885   -2.305918    0.000007
     21         17           0        5.063035    0.373855   -0.000005
     22         17           0       -1.137717    3.428734    0.000001
 ---------------------------------------------------------------------
 Rotational constants (GHZ):           0.4471807           0.1701393           0.1232473
 Standard basis: 6-311+G(d,p) (5D, 7F)
 There are   461 symmetry adapted cartesian basis functions of A   symmetry.
 There are   444 symmetry adapted basis functions of A   symmetry.
   444 basis functions,   737 primitive gaussians,   461 cartesian basis functions
    81 alpha electrons       81 beta electrons
       nuclear repulsion energy      1703.4520629145 Hartrees.
 NAtoms=   22 NActive=   22 NUniq=   22 SFac= 1.00D+00 NAtFMM=   60 NAOKFM=F Big=F
 Integral buffers will be    131072 words long.
 Raffenetti 2 integral format.
 Two-electron integral symmetry is turned on.
 One-electron integrals computed using PRISM.
 NBasis=   444 RedAO= T EigKep=  1.62D-06  NBF=   444
 NBsUse=   438 1.00D-06 EigRej=  8.97D-07 NBFU=   438
 Initial guess from the checkpoint file:  "/scratch/gour/Gau-47380.chk"
 B after Tr=     0.000000   -0.000000    0.000000
         Rot=    0.999985    0.000000   -0.000000   -0.005396 Ang=  -0.62 deg.
 ExpMin= 4.38D-02 ExpMax= 1.06D+05 ExpMxC= 3.62D+03 IAcc=3 IRadAn=         5 AccDes= 0.00D+00
 Harris functional with IExCor=  402 and IRadAn=       5 diagonalized for initial guess.
 HarFok:  IExCor=  402 AccDes= 0.00D+00 IRadAn=         5 IDoV= 1 UseB2=F ITyADJ=14
 ICtDFT=  3500011 ScaDFX=  1.000000  1.000000  1.000000  1.000000
 FoFCou: FMM=F IPFlag=           0 FMFlag=      100000 FMFlg1=           0
         NFxFlg=           0 DoJE=T BraDBF=F KetDBF=T FulRan=T
         wScrn=  0.000000 ICntrl=       500 IOpCl=  0 I1Cent=   200000004 NGrid=           0
         NMat0=    1 NMatS0=      1 NMatT0=    0 NMatD0=    1 NMtDS0=    0 NMtDT0=    0
 Petite list used in FoFCou.
 Requested convergence on RMS density matrix=1.00D-08 within  32 cycles.
 Requested convergence on MAX density matrix=1.00D-06.
 Requested convergence on             energy=1.00D-06.
 No special actions if energy rises.
 SCF Done:  E(RB3LYP) =  -2761.47535629     A.U. after   15 cycles
            NFock= 15  Conv=0.26D-08     -V/T= 2.0027
 QCSCF skips out because SCF is already converged.
 Calling FoFJK, ICntrl=      2127 FMM=F ISym2X=0 I1Cent= 0 IOpClX= 0 NMat=1 NMatS=1 NMatT=0.
 ***** Axes restored to original set *****
 -------------------------------------------------------------------
 Center     Atomic                   Forces (Hartrees/Bohr)
 Number     Number              X              Y              Z
 -------------------------------------------------------------------
      1        6          -0.012828107   -0.020482894    0.000379314
      2        6          -0.003609435    0.018045799    0.004578465
      3        6          -0.013424991   -0.005542869    0.003382023
      4        6           0.003432061    0.005057123   -0.000181139
      5        6          -0.002917651   -0.004203643    0.000171782
      6        6           0.016706983    0.005209843   -0.004525763
      7        6           0.017021514    0.025509672   -0.000816736
      8        6          -0.017391781    0.005770079    0.006813603
      9        6          -0.001440310    0.009727433    0.002301330
     10        6           0.004091882    0.005509758   -0.000313282
     11        6          -0.004175894    0.002576703    0.001859884
     12        6           0.008098425   -0.004162199   -0.003449841
     13        1           0.006730232    0.000917996   -0.002044945
     14        1           0.006567535    0.000189748   -0.002128057
     15        1          -0.001312372    0.007133820    0.001772053
     16        1           0.003875200   -0.005041906   -0.002223595
     17        1          -0.003826081   -0.005486177    0.000230121
     18       17          -0.005551190   -0.005473374    0.000800977
     19       17           0.002951788   -0.008540982   -0.002576655
     20       17          -0.001517152   -0.005857798   -0.000600282
     21       17           0.000026620   -0.006399599   -0.001210656
     22       17          -0.001507276   -0.014456532   -0.002218601
 -------------------------------------------------------------------
 Cartesian Forces:  Max     0.025509672 RMS     0.007628446

 GradGradGradGradGradGradGradGradGradGradGradGradGradGradGradGradGradGrad
 Berny optimization.
 Using GEDIIS/GDIIS optimizer.
 FormGI is forming the generalized inverse of G from B-inverse, IUseBI=4.
 Internal  Forces:  Max     0.030518190 RMS     0.006664268
 Search for a local minimum.
 Step number   2 out of a maximum of  121
 All quantities printed in internal units (Hartrees-Bohrs-Radians)
 Mixed Optimization -- RFO/linear search
 Update second derivatives using D2CorX and points    1    2
 DE= -7.50D-02 DEPred=-1.43D-01 R= 5.24D-01
 TightC=F SS=  1.41D+00  RLast= 3.00D-01 DXNew= 5.0454D-01 8.9996D-01
 Trust test= 5.24D-01 RLast= 3.00D-01 DXMaxT set to 5.05D-01
 ITU=  1  0
 Use linear search instead of GDIIS.
     Eigenvalues ---    0.00237   0.01460   0.01467   0.02070   0.02070
     Eigenvalues ---    0.02070   0.02070   0.02070   0.02070   0.02070
     Eigenvalues ---    0.02070   0.02070   0.02070   0.02070   0.02070
     Eigenvalues ---    0.02070   0.02070   0.02070   0.02070   0.16000
     Eigenvalues ---    0.16000   0.16000   0.16000   0.16085   0.22373
     Eigenvalues ---    0.22526   0.23627   0.24485   0.24624   0.24891
     Eigenvalues ---    0.25000   0.25000   0.25000   0.25000   0.25000
     Eigenvalues ---    0.25000   0.27887   0.29531   0.29536   0.29539
     Eigenvalues ---    0.29539   0.29539   0.36265   0.37204   0.37230
     Eigenvalues ---    0.37230   0.37230   0.38225   0.41236   0.41508
     Eigenvalues ---    0.41825   0.45068   0.45348   0.45389   0.45389
     Eigenvalues ---    0.45389   0.45389   0.45389   0.45389   1.59794
 RFO step:  Lambda=-1.13723260D-02 EMin= 2.36824242D-03
 Quartic linear search produced a step of  0.23678.
 Iteration  1 RMS(Cart)=  0.06145898 RMS(Int)=  0.00161468
 Iteration  2 RMS(Cart)=  0.00203096 RMS(Int)=  0.00008449
 Iteration  3 RMS(Cart)=  0.00000048 RMS(Int)=  0.00008449
 Variable       Old X    -DE/DX   Delta X   Delta X   Delta X     New X
                                 (Linear)    (Quad)   (Total)
    R1        2.66419   0.00221   0.00377  -0.00458  -0.00074   2.66345
    R2        2.66318   0.00113   0.00353  -0.00642  -0.00284   2.66034
    R3        2.99518  -0.00620   0.02013  -0.08745  -0.06732   2.92786
    R4        2.64485  -0.00958  -0.00081  -0.02348  -0.02428   2.62057
    R5        2.00028   0.00309  -0.00515   0.02494   0.01980   2.02008
    R6        2.62851  -0.00781  -0.00468  -0.00808  -0.01282   2.61569
    R7        2.02650   0.00691   0.00106   0.01915   0.02022   2.04672
    R8        2.63167  -0.00262  -0.00393   0.00393  -0.00006   2.63161
    R9        3.32376  -0.00550  -0.00051  -0.02059  -0.02110   3.30265
   R10        2.64404  -0.00883  -0.00100  -0.02032  -0.02133   2.62270
   R11        3.32355  -0.00439  -0.00056  -0.01598  -0.01654   3.30701
   R12        2.00143   0.00189  -0.00487   0.02027   0.01539   2.01682
   R13        2.71442   0.00533   0.01566  -0.02935  -0.01349   2.70093
   R14        2.71471   0.01139   0.01573  -0.01165   0.00417   2.71888
   R15        2.64276  -0.00829  -0.00130  -0.02002  -0.02123   2.62153
   R16        3.32180   0.00096  -0.00097   0.00684   0.00587   3.32767
   R17        2.61676  -0.01320  -0.00746  -0.01643  -0.02400   2.59276
   R18        2.02642   0.00664   0.00105   0.01836   0.01940   2.04583
   R19        2.61759  -0.01022  -0.00726  -0.00738  -0.01484   2.60275
   R20        2.02613   0.00667   0.00098   0.01865   0.01962   2.04575
   R21        2.64724   0.00826  -0.00024   0.02434   0.02400   2.67124
   R22        3.32188  -0.00336  -0.00096  -0.01065  -0.01160   3.31028
   R23        3.32068  -0.00091  -0.00124   0.00012  -0.00112   3.31956
    A1        2.02874  -0.01422  -0.01555  -0.01859  -0.03400   1.99473
    A2        2.12920   0.00378   0.00824  -0.00795   0.00023   2.12943
    A3        2.12525   0.01044   0.00731   0.02654   0.03378   2.15903
    A4        2.12852   0.00731   0.00808   0.01090   0.01905   2.14757
    A5        2.09747   0.00273   0.00073   0.02373   0.02442   2.12189
    A6        2.05719  -0.01004  -0.00881  -0.03463  -0.04347   2.01372
    A7        2.10204   0.00323   0.00181   0.00819   0.00995   2.11198
    A8        2.09158  -0.00156  -0.00067  -0.00451  -0.00515   2.08644
    A9        2.08957  -0.00168  -0.00114  -0.00368  -0.00480   2.08477
   A10        2.07664  -0.00562  -0.00420  -0.01592  -0.02026   2.05638
   A11        2.09903  -0.00300   0.00110  -0.01636  -0.01520   2.08383
   A12        2.10752   0.00862   0.00311   0.03228   0.03545   2.14297
   A13        2.10141   0.00212   0.00166   0.00367   0.00525   2.10666
   A14        2.09551   0.00593   0.00026   0.02780   0.02810   2.12361
   A15        2.08627  -0.00805  -0.00192  -0.03147  -0.03335   2.05291
   A16        2.12904   0.00718   0.00820   0.01175   0.02001   2.14904
   A17        2.09683   0.00364   0.00058   0.02972   0.03027   2.12710
   A18        2.05732  -0.01082  -0.00878  -0.04147  -0.05028   2.00704
   A19        2.13603   0.00509   0.00986  -0.00969   0.00000   2.13603
   A20        2.13154   0.01544   0.00879   0.04259   0.05122   2.18276
   A21        2.01562  -0.02054  -0.01865  -0.03290  -0.05122   1.96440
   A22        2.12033   0.01230   0.00614   0.03715   0.04359   2.16392
   A23        2.18994   0.01822   0.02262   0.01578   0.03825   2.22819
   A24        1.97291  -0.03052  -0.02876  -0.05293  -0.08184   1.89107
   A25        2.11579   0.00448   0.00507  -0.00043   0.00461   2.12040
   A26        2.08370  -0.00337  -0.00253  -0.00797  -0.01049   2.07320
   A27        2.08370  -0.00110  -0.00253   0.00840   0.00588   2.08958
   A28        2.08071  -0.00370  -0.00324  -0.01507  -0.01862   2.06208
   A29        2.10176   0.00241   0.00174   0.01115   0.01306   2.11482
   A30        2.10072   0.00129   0.00150   0.00391   0.00557   2.10628
   A31        2.11548   0.00281   0.00499  -0.00037   0.00432   2.11981
   A32        2.07960  -0.01598  -0.00350  -0.06557  -0.06892   2.01067
   A33        2.08810   0.01317  -0.00149   0.06594   0.06460   2.15270
   A34        2.11843   0.00465   0.00569   0.01162   0.01732   2.13576
   A35        2.18502   0.01060   0.02146  -0.02121   0.00024   2.18526
   A36        1.97973  -0.01525  -0.02715   0.00959  -0.01757   1.96217
    D1        0.00000  -0.00000   0.00000  -0.00000  -0.00000   0.00000
    D2        3.14159   0.00000   0.00000   0.00000   0.00000  -3.14159
    D3       -3.14159  -0.00000  -0.00000  -0.00000  -0.00000   3.14159
    D4       -0.00000  -0.00000  -0.00000   0.00000   0.00000  -0.00000
    D5       -0.00000   0.00000  -0.00000   0.00000   0.00000  -0.00000
    D6        3.14159  -0.00000  -0.00000  -0.00000  -0.00000   3.14159
    D7        3.14159   0.00000   0.00000   0.00000   0.00000  -3.14159
    D8       -0.00000  -0.00000  -0.00000  -0.00000  -0.00000  -0.00000
    D9       -0.00000  -0.00000  -0.00000  -0.00001  -0.00001  -0.00002
   D10        3.14159  -0.00000  -0.00000  -0.00001  -0.00001   3.14158
   D11        3.14159  -0.00000  -0.00000  -0.00001  -0.00001   3.14158
   D12       -0.00000  -0.00000  -0.00000  -0.00001  -0.00001  -0.00002
   D13        0.00000  -0.00000  -0.00000  -0.00000  -0.00000  -0.00000
   D14        3.14159   0.00000  -0.00000   0.00000   0.00000   3.14159
   D15       -3.14159  -0.00000  -0.00000  -0.00000  -0.00000  -3.14159
   D16        0.00000  -0.00000  -0.00000  -0.00000  -0.00000   0.00000
   D17       -0.00000   0.00000   0.00000   0.00000   0.00000  -0.00000
   D18        3.14159  -0.00000   0.00000  -0.00000  -0.00000   3.14159
   D19        3.14159   0.00000  -0.00000   0.00000   0.00000   3.14159
   D20        0.00000  -0.00000  -0.00000  -0.00000  -0.00000  -0.00000
   D21        0.00000  -0.00000   0.00000  -0.00000  -0.00000   0.00000
   D22       -3.14159  -0.00000   0.00000  -0.00000  -0.00000  -3.14159
   D23       -3.14159  -0.00000  -0.00000   0.00000   0.00000  -3.14159
   D24        0.00000   0.00000   0.00000   0.00000   0.00000   0.00000
   D25       -0.00000   0.00000   0.00000   0.00000   0.00000  -0.00000
   D26        3.14159   0.00000   0.00000   0.00000   0.00000  -3.14159
   D27        3.14159   0.00000  -0.00000   0.00000   0.00000   3.14159
   D28       -0.00000   0.00000   0.00000   0.00000   0.00000   0.00000
   D29        3.14159   0.00000   0.00000   0.00000   0.00000  -3.14159
   D30        0.00000  -0.00000   0.00000  -0.00000  -0.00000   0.00000
   D31        0.00000   0.00000   0.00000   0.00000   0.00000   0.00000
   D32       -3.14159  -0.00000  -0.00000  -0.00000  -0.00000   3.14159
   D33       -3.14159  -0.00000  -0.00000  -0.00000  -0.00000   3.14159
   D34       -0.00000  -0.00000  -0.00000  -0.00000  -0.00000  -0.00000
   D35       -0.00000   0.00000   0.00000   0.00000   0.00000  -0.00000
   D36        3.14159  -0.00000  -0.00000   0.00000   0.00000   3.14159
   D37       -0.00000  -0.00000  -0.00000  -0.00000  -0.00000  -0.00000
   D38        3.14159  -0.00000  -0.00000  -0.00000  -0.00000   3.14159
   D39        3.14159   0.00000   0.00000   0.00000   0.00000  -3.14159
   D40       -0.00000   0.00000   0.00000   0.00000   0.00000   0.00000
   D41       -0.00000  -0.00000   0.00000   0.00000   0.00000  -0.00000
   D42       -3.14159  -0.00000  -0.00000  -0.00000  -0.00000  -3.14159
   D43        3.14159   0.00000   0.00000   0.00000   0.00000  -3.14159
   D44        0.00000  -0.00000   0.00000  -0.00000  -0.00000   0.00000
   D45        0.00000   0.00000   0.00000   0.00000   0.00000   0.00000
   D46       -3.14159  -0.00000  -0.00000  -0.00000  -0.00000  -3.14159
   D47        3.14159   0.00000   0.00000   0.00000   0.00000  -3.14159
   D48        0.00000  -0.00000  -0.00000  -0.00000  -0.00000   0.00000
   D49        0.00000  -0.00000  -0.00000  -0.00000  -0.00000  -0.00000
   D50       -3.14159  -0.00000   0.00000  -0.00000  -0.00000  -3.14159
   D51        3.14159   0.00000   0.00000   0.00000   0.00000   3.14159
   D52       -0.00000   0.00000   0.00000   0.00000   0.00000   0.00000
         Item               Value     Threshold  Converged?
 Maximum Force            0.030518     0.000450     NO 
 RMS     Force            0.006664     0.000300     NO 
 Maximum Displacement     0.351618     0.001800     NO 
 RMS     Displacement     0.061479     0.001200     NO 
 Predicted change in Energy=-4.411159D-03
 GradGradGradGradGradGradGradGradGradGradGradGradGradGradGradGradGradGrad

                          Input orientation:                          
 ---------------------------------------------------------------------
 Center     Atomic      Atomic             Coordinates (Angstroms)
 Number     Number       Type             X           Y           Z
 ---------------------------------------------------------------------
      1          6           0       -0.219568    0.817928    0.011509
      2          6           0        1.121273    0.884967   -0.417639
      3          6           0        1.851146    2.063941   -0.436679
      4          6           0        1.286219    3.259022   -0.026124
      5          6           0       -0.037472    3.237661    0.405951
      6          6           0       -0.758940    2.052142    0.420993
      7          6           0       -1.012616   -0.513033    0.022818
[...]
                 (A) (A) (A) (A) (A) (A) (A) (A) (A)
       Virtual   (A) (A) (A) (A) (A) (A) (A) (A) (A) (A) (A) (A)
                 (A) (A) (A) (A) (A) (A) (A) (A) (A) (A) (A) (A)
                 (A) (A) (A) (A) (A) (A) (A) (A) (A) (A) (A) (A)
                 (A) (A) (A) (A) (A) (A) (A) (A) (A) (A) (A) (A)
                 (A) (A) (A) (A) (A) (A) (A) (A) (A) (A) (A) (A)
                 (A) (A) (A) (A) (A) (A) (A) (A) (A) (A) (A) (A)
                 (A) (A) (A) (A) (A) (A) (A) (A) (A) (A) (A) (A)
                 (A) (A) (A) (A) (A) (A) (A) (A) (A) (A) (A) (A)
                 (A) (A) (A) (A) (A) (A) (A) (A) (A) (A) (A) (A)
                 (A) (A) (A) (A) (A) (A) (A) (A) (A) (A) (A) (A)
                 (A) (A) (A) (A) (A) (A) (A) (A) (A) (A) (A) (A)
                 (A) (A) (A) (A) (A) (A) (A) (A) (A) (A) (A) (A)
                 (A) (A) (A) (A) (A) (A) (A) (A) (A) (A) (A) (A)
                 (A) (A) (A) (A) (A) (A) (A) (A) (A) (A) (A) (A)
                 (A) (A) (A) (A) (A) (A) (A) (A) (A) (A) (A) (A)
                 (A) (A) (A) (A) (A) (A) (A) (A) (A) (A) (A) (A)
                 (A) (A) (A) (A) (A) (A) (A) (A) (A) (A) (A) (A)
                 (A) (A) (A) (A) (A) (A) (A) (A) (A) (A) (A) (A)
                 (A) (A) (A) (A) (A) (A) (A) (A) (A) (A) (A) (A)
                 (A) (A) (A) (A) (A) (A) (A) (A) (A) (A) (A) (A)
                 (A) (A) (A) (A) (A) (A) (A) (A) (A) (A) (A) (A)
                 (A) (A) (A) (A) (A) (A) (A) (A) (A) (A) (A) (A)
                 (A) (A) (A) (A) (A) (A) (A) (A) (A) (A) (A) (A)
                 (A) (A) (A) (A) (A) (A) (A) (A) (A) (A) (A) (A)
                 (A) (A) (A) (A) (A) (A) (A) (A) (A) (A) (A) (A)
                 (A) (A) (A) (A) (A) (A) (A) (A) (A) (A) (A) (A)
                 (A) (A) (A) (A) (A) (A) (A) (A) (A) (A) (A) (A)
                 (A) (A) (A) (A) (A) (A) (A) (A) (A) (A) (A) (A)
                 (A) (A) (A) (A) (A) (A) (A) (A) (A) (A) (A) (A)
                 (A) (A) (A) (A) (A) (A) (A) (A) (A) (A) (A) (A)
 The electronic state is 1-A.
 Alpha  occ. eigenvalues -- -101.57540-101.57533-101.57339-101.56823-101.56803
 Alpha  occ. eigenvalues --  -10.27581 -10.27032 -10.26916 -10.26282 -10.26220
 Alpha  occ. eigenvalues --  -10.23651 -10.22057 -10.21994 -10.21702 -10.21032
 Alpha  occ. eigenvalues --  -10.20905 -10.20595  -9.49012  -9.48991  -9.48806
 Alpha  occ. eigenvalues --   -9.48281  -9.48262  -7.25499  -7.25477  -7.25278
 Alpha  occ. eigenvalues --   -7.24762  -7.24744  -7.24499  -7.24470  -7.24418
 Alpha  occ. eigenvalues --   -7.24413  -7.24290  -7.24235  -7.23764  -7.23743
 Alpha  occ. eigenvalues --   -7.23706  -7.23687  -0.94895  -0.93078  -0.90565
 Alpha  occ. eigenvalues --   -0.88349  -0.87208  -0.86059  -0.84341  -0.79825
 Alpha  occ. eigenvalues --   -0.76775  -0.75030  -0.74049  -0.66448  -0.64372
 Alpha  occ. eigenvalues --   -0.62831  -0.60838  -0.55040  -0.53291  -0.52674
 Alpha  occ. eigenvalues --   -0.51483  -0.49381  -0.48007  -0.46469  -0.46044
 Alpha  occ. eigenvalues --   -0.45758  -0.44511  -0.43379  -0.42646  -0.41385
 Alpha  occ. eigenvalues --   -0.39800  -0.39538  -0.39172  -0.36694  -0.35984
 Alpha  occ. eigenvalues --   -0.35460  -0.34867  -0.33991  -0.33505  -0.33421
 Alpha  occ. eigenvalues --   -0.32474  -0.32007  -0.28530  -0.27756  -0.26563
 Alpha  occ. eigenvalues --   -0.26349
 Alpha virt. eigenvalues --   -0.05722  -0.05574  -0.04706  -0.04137  -0.03206
 Alpha virt. eigenvalues --   -0.01786  -0.00559  -0.00014   0.00951   0.01796
 Alpha virt. eigenvalues --    0.02084   0.02455   0.02482   0.03129   0.04172
 Alpha virt. eigenvalues --    0.04699   0.05376   0.05474   0.05977   0.06158
 Alpha virt. eigenvalues --    0.06523   0.06748   0.07336   0.07841   0.08339
 Alpha virt. eigenvalues --    0.08702   0.09064   0.09261   0.09866   0.10510
 Alpha virt. eigenvalues --    0.10816   0.11214   0.11790   0.11988   0.12433
 Alpha virt. eigenvalues --    0.12624   0.12706   0.12897   0.13264   0.14262
 Alpha virt. eigenvalues --    0.14590   0.14694   0.15079   0.15424   0.15635
 Alpha virt. eigenvalues --    0.15919   0.16834   0.17008   0.17275   0.17452
 Alpha virt. eigenvalues --    0.18077   0.18244   0.18848   0.19058   0.19465
 Alpha virt. eigenvalues --    0.19960   0.20170   0.20643   0.20867   0.21373
 Alpha virt. eigenvalues --    0.21595   0.22136   0.22538   0.22908   0.23047
 Alpha virt. eigenvalues --    0.23189   0.23435   0.24363   0.24637   0.24680
 Alpha virt. eigenvalues --    0.25296   0.25571   0.26028   0.26183   0.27172
 Alpha virt. eigenvalues --    0.27427   0.28002   0.28548   0.28728   0.29174
 Alpha virt. eigenvalues --    0.29677   0.29991   0.30240   0.31119   0.31886
 Alpha virt. eigenvalues --    0.32326   0.32631   0.33162   0.35197   0.36015
 Alpha virt. eigenvalues --    0.40754   0.41733   0.43685   0.43742   0.43994
 Alpha virt. eigenvalues --    0.44351   0.45499   0.45738   0.45971   0.46580
 Alpha virt. eigenvalues --    0.46937   0.47124   0.47834   0.48075   0.48799
 Alpha virt. eigenvalues --    0.49966   0.50717   0.51180   0.51764   0.52560
 Alpha virt. eigenvalues --    0.54127   0.55067   0.56701   0.56848   0.57415
 Alpha virt. eigenvalues --    0.57735   0.58451   0.59218   0.59797   0.59917
 Alpha virt. eigenvalues --    0.61093   0.61570   0.62740   0.63902   0.64041
 Alpha virt. eigenvalues --    0.64460   0.65361   0.65994   0.66242   0.66731
 Alpha virt. eigenvalues --    0.68325   0.69175   0.69434   0.69803   0.70024
 Alpha virt. eigenvalues --    0.71283   0.71559   0.73698   0.75407   0.78499
 Alpha virt. eigenvalues --    0.80398   0.80815   0.81124   0.82028   0.82967
 Alpha virt. eigenvalues --    0.83336   0.84013   0.84238   0.84719   0.84968
 Alpha virt. eigenvalues --    0.85127   0.85323   0.85423   0.85653   0.86188
 Alpha virt. eigenvalues --    0.86454   0.86691   0.86865   0.88397   0.88792
 Alpha virt. eigenvalues --    0.89423   0.90676   0.91652   0.92654   0.93928
 Alpha virt. eigenvalues --    0.94239   0.94481   0.95066   0.95406   0.95783
 Alpha virt. eigenvalues --    0.95986   0.96492   0.96846   0.98698   0.98802
 Alpha virt. eigenvalues --    1.00115   1.00710   1.01291   1.02760   1.04720
 Alpha virt. eigenvalues --    1.05209   1.06555   1.08146   1.09919   1.12041
 Alpha virt. eigenvalues --    1.15085   1.17490   1.19573   1.21997   1.22398
 Alpha virt. eigenvalues --    1.23995   1.25349   1.25432   1.26778   1.28221
 Alpha virt. eigenvalues --    1.28460   1.29000   1.29996   1.32568   1.32681
 Alpha virt. eigenvalues --    1.34617   1.36453   1.39614   1.41408   1.42860
 Alpha virt. eigenvalues --    1.47796   1.48838   1.49219   1.52548   1.55156
 Alpha virt. eigenvalues --    1.56230   1.56981   1.57128   1.60352   1.61933
 Alpha virt. eigenvalues --    1.63873   1.65282   1.67057   1.68713   1.69202
 Alpha virt. eigenvalues --    1.70135   1.71554   1.74800   1.78416   1.80186
 Alpha virt. eigenvalues --    1.81131   1.82026   1.83110   1.84917   1.85958
 Alpha virt. eigenvalues --    1.87400   1.89183   1.92725   1.93100   1.93435
 Alpha virt. eigenvalues --    1.95033   1.96312   1.97261   1.98229   1.99659
 Alpha virt. eigenvalues --    2.02502   2.06886   2.07940   2.11306   2.13237
 Alpha virt. eigenvalues --    2.14219   2.14855   2.18542   2.24243   2.24430
 Alpha virt. eigenvalues --    2.25574   2.25588   2.26718   2.27527   2.28032
 Alpha virt. eigenvalues --    2.29728   2.31274   2.34623   2.35584   2.37005
 Alpha virt. eigenvalues --    2.40153   2.40337   2.41618   2.43277   2.45157
 Alpha virt. eigenvalues --    2.46749   2.51148   2.51865   2.53240   2.54712
 Alpha virt. eigenvalues --    2.55188   2.56989   2.58818   2.61805   2.62724
 Alpha virt. eigenvalues --    2.67057   2.68188   2.69454   2.69946   2.70484
 Alpha virt. eigenvalues --    2.70993   2.73730   2.74401   2.74783   2.75641
 Alpha virt. eigenvalues --    2.78054   2.78386   2.82781   2.83604   2.83854
 Alpha virt. eigenvalues --    2.84565   2.88582   2.90169   2.96885   2.99532
 Alpha virt. eigenvalues --    3.07964   3.09601   3.10051   3.12371   3.13503
 Alpha virt. eigenvalues --    3.14322   3.18803   3.19929   3.24308   3.27647
 Alpha virt. eigenvalues --    3.33152   3.36757   3.41298   3.44069   3.52345
 Alpha virt. eigenvalues --    3.58041   3.63817   3.69675   3.77773   3.84344
 Alpha virt. eigenvalues --    3.86362   3.99690   4.04194   4.07067   4.12354
 Alpha virt. eigenvalues --    4.33065   4.80397   4.82076   9.76552   9.77281
 Alpha virt. eigenvalues --    9.80054   9.80287   9.83641  23.37498  23.54064
 Alpha virt. eigenvalues --   23.81881  23.87859  23.89381  23.89899  23.95619
 Alpha virt. eigenvalues --   23.97811  24.02828  24.07736  24.11968  24.15893
 Alpha virt. eigenvalues --   25.78728  25.79792  25.85891  25.87276  25.92543
 Alpha virt. eigenvalues --   26.08125  26.13975  26.18698  26.24901  26.29794
 Alpha virt. eigenvalues --   26.51690  26.55017  26.66260  26.78884  26.90048
 Alpha virt. eigenvalues --  215.75699 215.76534 215.79602 215.80010 215.84224
          Condensed to atoms (all electrons):
               1          2          3          4          5          6
     1  C   38.062065   3.699283  -4.250250  -3.657684 -12.984337  11.528898
     2  C    3.699283  27.266005  -3.551885   0.787870  -5.559537  -4.502750
     3  C   -4.250250  -3.551885  33.849588  -7.784333  -3.030632 -17.857785
     4  C   -3.657684   0.787870  -7.784333  33.662394  -5.459487  -4.246176
     5  C  -12.984337  -5.559537  -3.030632  -5.459487  42.109674 -23.850639
     6  C   11.528898  -4.502750 -17.857785  -4.246176 -23.850639  70.572565
     7  C   -2.975220  -4.470918   6.760805  -4.340838  10.328702 -16.767945
     8  C   -8.959827  -3.449505   1.035070  -0.935841   2.455426  -3.723339
     9  C   -1.760924  -0.398886  -0.005504   0.056767  -0.771851   0.465812
    10  C   -0.922248  -0.070358  -0.055682  -0.011196   0.038791   0.123572
    11  C   -3.671240  -0.791359   0.378519  -0.152873   0.293835  -1.035029
    12  C   -6.404059  -2.874033   0.787549  -0.803858   1.862474  -2.874363
    13  H    0.009150   0.193848  -0.003747  -0.054760  -0.002892  -0.014522
    14  H    0.025752  -0.034265   0.242791   0.082779   0.050306  -0.014295
    15  H   -0.011335   0.002463   0.018272  -0.002560   0.134136  -0.079938
    16  H    0.023935   0.001134  -0.000350   0.000057  -0.000860  -0.000903
    17  H    0.016595   0.000632  -0.000140   0.000071  -0.000466  -0.000501
    18  Cl  -0.954294   0.007641   0.313262  -0.129262   0.632464  -0.662193
    19  Cl  -0.232677  -0.048900   0.013199  -0.009055   0.034254  -0.050916
    20  Cl  -0.375281   0.267063   0.675347  -0.022709  -1.426567   0.222213
    21  Cl  -0.198156   0.337324  -0.623460  -1.260057   0.229606   1.034647
    22  Cl  -0.347990   0.016798   0.301061  -0.134341   0.709742  -0.801183
               7          8          9         10         11         12
     1  C   -2.975220  -8.959827  -1.760924  -0.922248  -3.671240  -6.404059
     2  C   -4.470918  -3.449505  -0.398886  -0.070358  -0.791359  -2.874033
     3  C    6.760805   1.035070  -0.005504  -0.055682   0.378519   0.787549
     4  C   -4.340838  -0.935841   0.056767  -0.011196  -0.152873  -0.803858
     5  C   10.328702   2.455426  -0.771851   0.038791   0.293835   1.862474
     6  C  -16.767945  -3.723339   0.465812   0.123572  -1.035029  -2.874363
     7  C   28.345003  -5.291355  -3.488167  -1.554246  -3.440072   2.635626
     8  C   -5.291355  28.176883  -5.194237   0.883537   3.229400  -2.608926
     9  C   -3.488167  -5.194237  14.673520   2.860680  -1.728807   1.984630
    10  C   -1.554246   0.883537   2.860680  14.805550  -2.432075  -7.559612
    11  C   -3.440072   3.229400  -1.728807  -2.432075  17.465725  -2.742092
    12  C    2.635626  -2.608926   1.984630  -7.559612  -2.742092  26.580269
    13  H    0.075524   0.061717   0.015482   0.001943   0.006346   0.068873
    14  H   -0.005868   0.002718   0.000567   0.000128  -0.000346   0.002594
    15  H    0.147524   0.066678   0.008457   0.004928   0.001244   0.076645
    16  H    0.068316   0.043260   0.318216  -0.046769  -0.027898  -0.022973
    17  H    0.052417  -0.012780  -0.064833   0.312555   0.023363   0.024111
    18  Cl   0.075409  -0.098569   0.387779   0.762695   0.069090  -1.733147
    19  Cl  -0.589294   0.180380   0.029279  -0.388841  -0.629201   1.114229
    20  Cl  -0.085717  -0.028659   0.001364   0.000320   0.004380  -0.040473
    21  Cl  -0.185671  -0.044669  -0.003253  -0.002348   0.002411  -0.040946
    22  Cl   0.439321   0.046469  -0.898393  -0.183002   0.199217  -0.379305
              13         14         15         16         17         18
     1  C    0.009150   0.025752  -0.011335   0.023935   0.016595  -0.954294
     2  C    0.193848  -0.034265   0.002463   0.001134   0.000632   0.007641
     3  C   -0.003747   0.242791   0.018272  -0.000350  -0.000140   0.313262
     4  C   -0.054760   0.082779  -0.002560   0.000057   0.000071  -0.129262
     5  C   -0.002892   0.050306   0.134136  -0.000860  -0.000466   0.632464
     6  C   -0.014522  -0.014295  -0.079938  -0.000903  -0.000501  -0.662193
     7  C    0.075524  -0.005868   0.147524   0.068316   0.052417   0.075409
     8  C    0.061717   0.002718   0.066678   0.043260  -0.012780  -0.098569
     9  C    0.015482   0.000567   0.008457   0.318216  -0.064833   0.387779
    10  C    0.001943   0.000128   0.004928  -0.046769   0.312555   0.762695
    11  C    0.006346  -0.000346   0.001244  -0.027898   0.023363   0.069090
    12  C    0.068873   0.002594   0.076645  -0.022973   0.024111  -1.733147
    13  H    0.532586  -0.007061  -0.000016   0.000000  -0.000003  -0.005876
    14  H   -0.007061   0.509640   0.000053   0.000000  -0.000000  -0.001269
    15  H   -0.000016   0.000053   0.515034   0.000002  -0.000003  -0.005910
    16  H    0.000000   0.000000   0.000002   0.503484  -0.007500   0.000649
    17  H   -0.000003  -0.000000  -0.000003  -0.007500   0.501797  -0.001726
    18  Cl  -0.005876  -0.001269  -0.005910   0.000649  -0.001726  18.001579
    19  Cl   0.000371  -0.000002   0.000385  -0.000535  -0.003149  -0.195852
    20  Cl  -0.000126  -0.000086  -0.013718  -0.000009  -0.000000   0.000263
    21  Cl  -0.001541  -0.009301  -0.001885  -0.000001   0.000000   0.005106
    22  Cl  -0.005486  -0.001271  -0.005091  -0.008298   0.000452  -0.063113
              19         20         21         22
     1  C   -0.232677  -0.375281  -0.198156  -0.347990
     2  C   -0.048900   0.267063   0.337324   0.016798
     3  C    0.013199   0.675347  -0.623460   0.301061
     4  C   -0.009055  -0.022709  -1.260057  -0.134341
     5  C    0.034254  -1.426567   0.229606   0.709742
     6  C   -0.050916   0.222213   1.034647  -0.801183
     7  C   -0.589294  -0.085717  -0.185671   0.439321
     8  C    0.180380  -0.028659  -0.044669   0.046469
     9  C    0.029279   0.001364  -0.003253  -0.898393
    10  C   -0.388841   0.000320  -0.002348  -0.183002
    11  C   -0.629201   0.004380   0.002411   0.199217
    12  C    1.114229  -0.040473  -0.040946  -0.379305
    13  H    0.000371  -0.000126  -0.001541  -0.005486
    14  H   -0.000002  -0.000086  -0.009301  -0.001271
    15  H    0.000385  -0.013718  -0.001885  -0.005091
    16  H   -0.000535  -0.000009  -0.000001  -0.008298
    17  H   -0.003149  -0.000000   0.000000   0.000452
    18  Cl  -0.195852   0.000263   0.005106  -0.063113
    19  Cl  17.317527   0.000077  -0.000007  -0.006278
    20  Cl   0.000077  17.502304  -0.191853   0.001479
    21  Cl  -0.000007  -0.191853  17.472332   0.005381
    22  Cl  -0.006278   0.001479   0.005381  17.667509
 Mulliken charges:
               1
     1  C    0.339843
     2  C   -0.827667
     3  C   -1.211695
     4  C    0.415093
     5  C    0.207858
     6  C   -1.465233
     7  C    0.266663
     8  C    0.166169
     9  C   -0.487698
    10  C   -0.568321
    11  C    0.977461
    12  C   -1.053214
    13  H    0.130190
    14  H    0.156436
    15  H    0.144634
    16  H    0.157041
    17  H    0.159107
    18  Cl   0.595275
    19  Cl   0.465007
    20  Cl   0.510389
    21  Cl   0.476340
    22  Cl   0.446322
 Sum of Mulliken charges =  -0.00000
 Mulliken charges with hydrogens summed into heavy atoms:
               1
     1  C    0.339843
     2  C   -0.697477
     3  C   -1.055259
     4  C    0.415093
     5  C    0.207858
     6  C   -1.320599
     7  C    0.266663
     8  C    0.166169
     9  C   -0.330657
    10  C   -0.409214
    11  C    0.977461
    12  C   -1.053214
    18  Cl   0.595275
    19  Cl   0.465007
    20  Cl   0.510389
    21  Cl   0.476340
    22  Cl   0.446322
 Electronic spatial extent (au):  <R**2>=           7288.0366
 Charge=              0.0000 electrons
 Dipole moment (field-independent basis, Debye):
    X=             -2.4252    Y=              1.4849    Z=              0.9165  Tot=              2.9877
 Quadrupole moment (field-independent basis, Debye-Ang):
   XX=           -133.5521   YY=           -134.1967   ZZ=           -128.5047
   XY=             -6.4769   XZ=              3.6796   YZ=             -0.4945
 Traceless Quadrupole moment (field-independent basis, Debye-Ang):
   XX=             -1.4676   YY=             -2.1122   ZZ=              3.5798
   XY=             -6.4769   XZ=              3.6796   YZ=             -0.4945
 Octapole moment (field-independent basis, Debye-Ang**2):
  XXX=            -50.7802  YYY=             -9.3450  ZZZ=              5.9406  XYY=             -8.2225
  XXY=             28.9862  XXZ=             -0.9076  XZZ=             14.0343  YZZ=             -4.0053
  YYZ=             -4.3802  XYZ=              2.1731
 Hexadecapole moment (field-independent basis, Debye-Ang**3):
 XXXX=          -6846.8448 YYYY=          -1805.9311 ZZZZ=           -793.1389 XXXY=            -88.7161
 XXXZ=             24.1034 YYYX=             15.9295 YYYZ=             -6.5854 ZZZX=             -5.0364
 ZZZY=              5.5053 XXYY=          -1420.5157 XXZZ=          -1300.2686 YYZZ=           -465.9910
 XXYZ=             -9.8474 YYXZ=              0.6740 ZZXY=              9.0245
 N-N= 1.716700695413D+03 E-N=-9.970260781960D+03  KE= 2.754119383745D+03
 1\1\GINC-LOCALHOST\FOpt\RB3LYP\6-311+G(d,p)\C12H5Cl5\GOUR\16-Mar-2022\
 0\\# opt b3lyp/6-311+g(d,p) scf=xqc\\Title Card Required\\0,1\C,-0.243
 4927794,0.7655812539,-0.0354870579\C,0.4478033333,1.1289180472,-1.1933
 201776\C,1.134336695,2.3349280325,-1.2511807233\C,1.1411687718,3.19514
 13059,-0.1548229783\C,0.4516707365,2.8367717997,1.0068432477\C,-0.2357
 497019,1.6263780701,1.0607423884\C,-0.9790088296,-0.5324991874,0.03769
 21864\C,-0.3544631275,-1.7001742414,0.4937450388\C,-1.0280386886,-2.91
 5365503,0.5646940404\C,-2.3570760181,-2.9840512694,0.1746731754\C,-3.0
 120540223,-1.8450951108,-0.2841841219\C,-2.3278571662,-0.6264745366,-0
 .3523978449\H,0.4508361858,0.4697524108,-2.0530075567\H,1.6711473294,2
 .6199713628,-2.1468375297\H,-0.7647540102,1.364004543,1.9679828868\H,-
 0.5146352993,-3.7979038916,0.9223023474\H,-2.8947932272,-3.9218916089,
 0.224196673\Cl,-3.1465371037,0.8037924027,-0.9266060314\Cl,-4.68523266
 53,-1.9813579554,-0.7637062881\Cl,0.4269936019,3.8758772671,2.41073163
 66\Cl,2.0169696237,4.7015311091,-0.2698493141\Cl,1.326012362,-1.657196
 9905,0.9962834232\\Version=EM64L-G16RevB.01\State=1-A\HF=-2761.5157708
 \RMSD=2.979e-09\RMSF=1.938e-05\Dipole=-0.0203425,-1.1412211,-0.2808776
 \Quadrupole=-4.3908157,2.9326226,1.458193,-0.3951072,-3.7129984,-2.689
 3094\PG=C01 [X(C12H5Cl5)]\\@


 THERE ARE TWO THINGS THAT EVERYBODY THINKS THEY CAN DO BETTER THAN
 ANYONE ELSE - PUNCH THE FIRE, AND EDIT A DAILY PAPER.
 -- UNCLE ESEK, "CENTURY MAGAZINE", 1885
 Job cpu time:       0 days 23 hours  2 minutes 22.5 seconds.
 Elapsed time:       0 days  5 hours 46 minutes 35.7 seconds.
 File lengths (MBytes):  RWF=    122 Int=      0 D2E=      0 Chk=     20 Scr=      1
 Normal termination of Gaussian 16 at Wed Mar 16 17:44:06 2022.
