 Entering Gaussian System, Link 0=g16
 Input=2,3,4prime,5-Ttetrachlorobiphenyl.gjf
 Output=2,3,4prime,5-Ttetrachlorobiphenyl.log
 Initial command:
 /opt/g16/l1.exe "/scratch/gour/Gau-17936.inp" -scrdir="/scratch/gour/"
 Entering Link 1 = /opt/g16/l1.exe PID=     17937.
  
 Copyright (c) 1988-2017, Gaussian, Inc.  All Rights Reserved.
  
 This is part of the Gaussian(R) 16 program.  It is based on
 the Gaussian(R) 09 system (copyright 2009, Gaussian, Inc.),
 the Gaussian(R) 03 system (copyright 2003, Gaussian, Inc.),
 the Gaussian(R) 98 system (copyright 1998, Gaussian, Inc.),
 the Gaussian(R) 94 system (copyright 1995, Gaussian, Inc.),
 the Gaussian 92(TM) system (copyright 1992, Gaussian, Inc.),
 the Gaussian 90(TM) system (copyright 1990, Gaussian, Inc.),
 the Gaussian 88(TM) system (copyright 1988, Gaussian, Inc.),
 the Gaussian 86(TM) system (copyright 1986, Carnegie Mellon
 University), and the Gaussian 82(TM) system (copyright 1983,
 Carnegie Mellon University). Gaussian is a federally registered
 trademark of Gaussian, Inc.
  
 This software contains proprietary and confidential information,
 including trade secrets, belonging to Gaussian, Inc.
  
 This software is provided under written license and may be
 used, copied, transmitted, or stored only in accord with that
 written license.
  
 The following legend is applicable only to US Government
 contracts under FAR:
  
                    RESTRICTED RIGHTS LEGEND
  
 Use, reproduction and disclosure by the US Government is
 subject to restrictions as set forth in subparagraphs (a)
 and (c) of the Commercial Computer Software - Restricted
 Rights clause in FAR 52.227-19.
  
 Gaussian, Inc.
 340 Quinnipiac St., Bldg. 40, Wallingford CT 06492
  
  
 ---------------------------------------------------------------
 Warning -- This program may not be used in any manner that
 competes with the business of Gaussian, Inc. or will provide
 assistance to any competitor of Gaussian, Inc.  The licensee
 of this program is prohibited from giving any competitor of
 Gaussian, Inc. access to this program.  By using this program,
 the user acknowledges that Gaussian, Inc. is engaged in the
 business of creating and licensing software in the field of
 computational chemistry and represents and warrants to the
 licensee that it is not a competitor of Gaussian, Inc. and that
 it will not use this program in any manner prohibited above.
 ---------------------------------------------------------------
  

 Cite this work as:
 Gaussian 16, Revision B.01,
 M. J. Frisch, G. W. Trucks, H. B. Schlegel, G. E. Scuseria, 
 M. A. Robb, J. R. Cheeseman, G. Scalmani, V. Barone, 
 G. A. Petersson, H. Nakatsuji, X. Li, M. Caricato, A. V. Marenich, 
 J. Bloino, B. G. Janesko, R. Gomperts, B. Mennucci, H. P. Hratchian, 
 J. V. Ortiz, A. F. Izmaylov, J. L. Sonnenberg, D. Williams-Young, 
 F. Ding, F. Lipparini, F. Egidi, J. Goings, B. Peng, A. Petrone, 
 T. Henderson, D. Ranasinghe, V. G. Zakrzewski, J. Gao, N. Rega, 
 G. Zheng, W. Liang, M. Hada, M. Ehara, K. Toyota, R. Fukuda, 
 J. Hasegawa, M. Ishida, T. Nakajima, Y. Honda, O. Kitao, H. Nakai, 
 T. Vreven, K. Throssell, J. A. Montgomery, Jr., J. E. Peralta, 
 F. Ogliaro, M. J. Bearpark, J. J. Heyd, E. N. Brothers, K. N. Kudin, 
 V. N. Staroverov, T. A. Keith, R. Kobayashi, J. Normand, 
 K. Raghavachari, A. P. Rendell, J. C. Burant, S. S. Iyengar, 
 J. Tomasi, M. Cossi, J. M. Millam, M. Klene, C. Adamo, R. Cammi, 
 J. W. Ochterski, R. L. Martin, K. Morokuma, O. Farkas, 
 J. B. Foresman, and D. J. Fox, Gaussian, Inc., Wallingford CT, 2016.
 
 ******************************************
 Gaussian 16:  EM64L-G16RevB.01 20-Dec-2017
                15-Mar-2022 
 ******************************************
 %mem=10GB
 %nprocshared=4
 Will use up to    4 processors via shared memory.
 --------------------------------
 # opt b3lyp/6-311+g(d,p) scf=xqc
 --------------------------------
 1/18=20,19=15,26=3,38=1/1,3;
 2/9=110,12=2,17=6,18=5,40=1/2;
 3/5=4,6=6,7=111,11=2,25=1,30=1,71=1,74=-5/1,2,3;
 4//1;
 5/5=2,8=3,13=1,38=5/2,8;
 6/7=2,8=2,9=2,10=2,28=1/1;
 7//1,2,3,16;
 1/18=20,19=15,26=3/3(2);
 2/9=110/2;
 99//99;
 2/9=110/2;
 3/5=4,6=6,7=111,11=2,25=1,30=1,71=1,74=-5/1,2,3;
 4/5=5,16=3,69=1/1;
 5/5=2,8=3,13=1,38=5/2,8;
 7//1,2,3,16;
 1/18=20,19=15,26=3/3(-5);
 2/9=110/2;
 6/7=2,8=2,9=2,10=2,19=2,28=1/1;
 99/9=1/99;
 -------------------
 Title Card Required
 -------------------
 Symbolic Z-matrix:
 Charge =  0 Multiplicity = 1
 C                    -0.58617   1.40399   0.20519 
 C                     0.74621   1.43387  -0.22816 
 C                     1.45411   2.64332  -0.23423 
 C                     0.82962   3.82289   0.19304 
 C                    -0.50276   3.793     0.62639 
 C                    -1.21066   2.58355   0.63246 
 C                    -1.36407   0.07492   0.21186 
 C                    -0.73959  -1.10465  -0.21542 
 C                    -1.44748  -2.3141   -0.20934 
 C                    -2.77986  -2.34398   0.22401 
 C                    -3.40435  -1.16442   0.65128 
 C                    -2.69645   0.04503   0.64521 
 H                     1.22302   0.53325  -0.55439 
 H                     2.47141   2.66614  -0.5651 
 H                    -0.97957   4.69363   0.95262 
 H                    -2.22796   2.56073   0.96333 
 H                     0.27772  -1.08183  -0.54629 
 H                    -3.32035  -3.26743   0.22865 
 Cl                   -3.48074   1.52643   1.18182 
 Cl                   -5.07766  -1.20195   1.19553 
 Cl                    1.71865   5.34182   0.18542 
 Cl                   -0.66319  -3.7955   -0.74595 
 

 GradGradGradGradGradGradGradGradGradGradGradGradGradGradGradGradGradGrad
 Berny optimization.
 Initialization pass.
                           ----------------------------
                           !    Initial Parameters    !
                           ! (Angstroms and Degrees)  !
 --------------------------                            --------------------------
 ! Name  Definition              Value          Derivative Info.                !
 --------------------------------------------------------------------------------
 ! R1    R(1,2)                  1.4014         estimate D2E/DX2                !
 ! R2    R(1,6)                  1.4014         estimate D2E/DX2                !
 ! R3    R(1,7)                  1.54           estimate D2E/DX2                !
 ! R4    R(2,3)                  1.4014         estimate D2E/DX2                !
 ! R5    R(2,13)                 1.07           estimate D2E/DX2                !
 ! R6    R(3,4)                  1.4014         estimate D2E/DX2                !
 ! R7    R(3,14)                 1.07           estimate D2E/DX2                !
 ! R8    R(4,5)                  1.4014         estimate D2E/DX2                !
 ! R9    R(4,21)                 1.76           estimate D2E/DX2                !
 ! R10   R(5,6)                  1.4014         estimate D2E/DX2                !
 ! R11   R(5,15)                 1.07           estimate D2E/DX2                !
 ! R12   R(6,16)                 1.07           estimate D2E/DX2                !
 ! R13   R(7,8)                  1.4014         estimate D2E/DX2                !
 ! R14   R(7,12)                 1.4014         estimate D2E/DX2                !
 ! R15   R(8,9)                  1.4014         estimate D2E/DX2                !
 ! R16   R(8,17)                 1.07           estimate D2E/DX2                !
 ! R17   R(9,10)                 1.4014         estimate D2E/DX2                !
 ! R18   R(9,22)                 1.76           estimate D2E/DX2                !
 ! R19   R(10,11)                1.4014         estimate D2E/DX2                !
 ! R20   R(10,18)                1.07           estimate D2E/DX2                !
 ! R21   R(11,12)                1.4014         estimate D2E/DX2                !
 ! R22   R(11,20)                1.76           estimate D2E/DX2                !
 ! R23   R(12,19)                1.76           estimate D2E/DX2                !
 ! A1    A(2,1,6)              120.0            estimate D2E/DX2                !
 ! A2    A(2,1,7)              120.0            estimate D2E/DX2                !
 ! A3    A(6,1,7)              120.0            estimate D2E/DX2                !
 ! A4    A(1,2,3)              120.0            estimate D2E/DX2                !
 ! A5    A(1,2,13)             120.0            estimate D2E/DX2                !
 ! A6    A(3,2,13)             120.0            estimate D2E/DX2                !
 ! A7    A(2,3,4)              120.0            estimate D2E/DX2                !
 ! A8    A(2,3,14)             120.0            estimate D2E/DX2                !
 ! A9    A(4,3,14)             120.0            estimate D2E/DX2                !
 ! A10   A(3,4,5)              120.0            estimate D2E/DX2                !
 ! A11   A(3,4,21)             120.0            estimate D2E/DX2                !
 ! A12   A(5,4,21)             120.0            estimate D2E/DX2                !
 ! A13   A(4,5,6)              120.0            estimate D2E/DX2                !
 ! A14   A(4,5,15)             120.0            estimate D2E/DX2                !
 ! A15   A(6,5,15)             120.0            estimate D2E/DX2                !
 ! A16   A(1,6,5)              120.0            estimate D2E/DX2                !
 ! A17   A(1,6,16)             120.0            estimate D2E/DX2                !
 ! A18   A(5,6,16)             120.0            estimate D2E/DX2                !
 ! A19   A(1,7,8)              120.0            estimate D2E/DX2                !
 ! A20   A(1,7,12)             120.0            estimate D2E/DX2                !
 ! A21   A(8,7,12)             120.0            estimate D2E/DX2                !
 ! A22   A(7,8,9)              120.0            estimate D2E/DX2                !
 ! A23   A(7,8,17)             120.0            estimate D2E/DX2                !
 ! A24   A(9,8,17)             120.0            estimate D2E/DX2                !
 ! A25   A(8,9,10)             120.0            estimate D2E/DX2                !
 ! A26   A(8,9,22)             120.0            estimate D2E/DX2                !
 ! A27   A(10,9,22)            120.0            estimate D2E/DX2                !
 ! A28   A(9,10,11)            120.0            estimate D2E/DX2                !
 ! A29   A(9,10,18)            120.0            estimate D2E/DX2                !
 ! A30   A(11,10,18)           120.0            estimate D2E/DX2                !
 ! A31   A(10,11,12)           120.0            estimate D2E/DX2                !
 ! A32   A(10,11,20)           120.0            estimate D2E/DX2                !
 ! A33   A(12,11,20)           120.0            estimate D2E/DX2                !
 ! A34   A(7,12,11)            120.0            estimate D2E/DX2                !
 ! A35   A(7,12,19)            120.0            estimate D2E/DX2                !
 ! A36   A(11,12,19)           120.0            estimate D2E/DX2                !
 ! D1    D(6,1,2,3)              0.0001         estimate D2E/DX2                !
 ! D2    D(6,1,2,13)           180.0            estimate D2E/DX2                !
 ! D3    D(7,1,2,3)           -180.0            estimate D2E/DX2                !
 ! D4    D(7,1,2,13)            -0.0001         estimate D2E/DX2                !
 ! D5    D(2,1,6,5)             -0.0001         estimate D2E/DX2                !
 ! D6    D(2,1,6,16)           180.0            estimate D2E/DX2                !
 ! D7    D(7,1,6,5)            180.0            estimate D2E/DX2                !
 ! D8    D(7,1,6,16)             0.0            estimate D2E/DX2                !
 ! D9    D(2,1,7,8)             -0.0001         estimate D2E/DX2                !
 ! D10   D(2,1,7,12)           179.9998         estimate D2E/DX2                !
 ! D11   D(6,1,7,8)            179.9999         estimate D2E/DX2                !
 ! D12   D(6,1,7,12)            -0.0002         estimate D2E/DX2                !
 ! D13   D(1,2,3,4)              0.0            estimate D2E/DX2                !
 ! D14   D(1,2,3,14)           180.0            estimate D2E/DX2                !
 ! D15   D(13,2,3,4)          -179.9999         estimate D2E/DX2                !
 ! D16   D(13,2,3,14)            0.0001         estimate D2E/DX2                !
 ! D17   D(2,3,4,5)             -0.0001         estimate D2E/DX2                !
 ! D18   D(2,3,4,21)           180.0            estimate D2E/DX2                !
 ! D19   D(14,3,4,5)           179.9999         estimate D2E/DX2                !
 ! D20   D(14,3,4,21)            0.0            estimate D2E/DX2                !
 ! D21   D(3,4,5,6)              0.0001         estimate D2E/DX2                !
 ! D22   D(3,4,5,15)          -179.9999         estimate D2E/DX2                !
 ! D23   D(21,4,5,6)          -180.0            estimate D2E/DX2                !
 ! D24   D(21,4,5,15)            0.0            estimate D2E/DX2                !
 ! D25   D(4,5,6,1)              0.0            estimate D2E/DX2                !
 ! D26   D(4,5,6,16)           179.9999         estimate D2E/DX2                !
 ! D27   D(15,5,6,1)           180.0            estimate D2E/DX2                !
 ! D28   D(15,5,6,16)           -0.0001         estimate D2E/DX2                !
 ! D29   D(1,7,8,9)            179.9999         estimate D2E/DX2                !
 ! D30   D(1,7,8,17)             0.0001         estimate D2E/DX2                !
 ! D31   D(12,7,8,9)             0.0001         estimate D2E/DX2                !
 ! D32   D(12,7,8,17)         -179.9998         estimate D2E/DX2                !
 ! D33   D(1,7,12,11)         -179.9999         estimate D2E/DX2                !
 ! D34   D(1,7,12,19)            0.0            estimate D2E/DX2                !
 ! D35   D(8,7,12,11)           -0.0001         estimate D2E/DX2                !
 ! D36   D(8,7,12,19)          179.9999         estimate D2E/DX2                !
 ! D37   D(7,8,9,10)             0.0            estimate D2E/DX2                !
 ! D38   D(7,8,9,22)           180.0            estimate D2E/DX2                !
 ! D39   D(17,8,9,10)          179.9998         estimate D2E/DX2                !
 ! D40   D(17,8,9,22)           -0.0002         estimate D2E/DX2                !
 ! D41   D(8,9,10,11)            0.0            estimate D2E/DX2                !
 ! D42   D(8,9,10,18)         -179.9999         estimate D2E/DX2                !
 ! D43   D(22,9,10,11)         180.0            estimate D2E/DX2                !
 ! D44   D(22,9,10,18)           0.0001         estimate D2E/DX2                !
 ! D45   D(9,10,11,12)           0.0            estimate D2E/DX2                !
 ! D46   D(9,10,11,20)        -179.9998         estimate D2E/DX2                !
 ! D47   D(18,10,11,12)        179.9999         estimate D2E/DX2                !
 ! D48   D(18,10,11,20)          0.0001         estimate D2E/DX2                !
 ! D49   D(10,11,12,7)           0.0            estimate D2E/DX2                !
 ! D50   D(10,11,12,19)       -179.9999         estimate D2E/DX2                !
 ! D51   D(20,11,12,7)         179.9999         estimate D2E/DX2                !
 ! D52   D(20,11,12,19)         -0.0001         estimate D2E/DX2                !
 --------------------------------------------------------------------------------
 Trust Radius=3.00D-01 FncErr=1.00D-07 GrdErr=1.00D-06 EigMax=2.50D+02 EigMin=1.00D-04
 Number of steps in this run=    121 maximum allowed number of steps=    132.
 GradGradGradGradGradGradGradGradGradGradGradGradGradGradGradGradGradGrad

                          Input orientation:                          
 ---------------------------------------------------------------------
 Center     Atomic      Atomic             Coordinates (Angstroms)
 Number     Number       Type             X           Y           Z
 ---------------------------------------------------------------------
      1          6           0       -0.586169    1.403987    0.205186
      2          6           0        0.746212    1.433872   -0.228161
      3          6           0        1.454105    2.643323   -0.234233
      4          6           0        0.829618    3.822889    0.193041
      5          6           0       -0.502764    3.793003    0.626386
      6          6           0       -1.210657    2.583552    0.632458
      7          6           0       -1.364074    0.074919    0.211859
      8          6           0       -0.739587   -1.104646   -0.215415
      9          6           0       -1.447480   -2.314097   -0.209341
     10          6           0       -2.779860   -2.343983    0.224009
     11          6           0       -3.404347   -1.164418    0.651284
     12          6           0       -2.696454    0.045033    0.645210
     13          1           0        1.223022    0.533248   -0.554393
     14          1           0        2.471408    2.666142   -0.565103
     15          1           0       -0.979574    4.693628    0.952618
     16          1           0       -2.227960    2.560734    0.963328
     17          1           0        0.277716   -1.081827   -0.546285
     18          1           0       -3.320351   -3.267427    0.228648
     19         17           0       -3.480739    1.526433    1.181821
     20         17           0       -5.077664   -1.201953    1.195526
     21         17           0        1.718653    5.341822    0.185416
     22         17           0       -0.663194   -3.795497   -0.745950
 ---------------------------------------------------------------------
                    Distance matrix (angstroms):
                    1          2          3          4          5
     1  C    0.000000
     2  C    1.401400   0.000000
     3  C    2.427296   1.401400   0.000000
     4  C    2.802800   2.427296   1.401400   0.000000
     5  C    2.427296   2.802800   2.427296   1.401400   0.000000
     6  C    1.401400   2.427296   2.802800   2.427296   1.401400
     7  C    1.540000   2.548270   3.838989   4.342800   3.838989
     8  C    2.548270   2.941400   4.342800   5.187469   4.975106
     9  C    3.838989   4.342800   5.744200   6.558176   6.235992
    10  C    4.342800   5.187469   6.558176   7.145600   6.558176
    11  C    3.838989   4.975106   6.235992   6.558176   5.744200
    12  C    2.548270   3.813607   4.975106   5.187469   4.342800
    13  H    2.146700   1.070000   2.146700   3.396345   3.872800
    14  H    3.396345   2.146700   1.070000   2.146700   3.396345
    15  H    3.396345   3.872800   3.396345   2.146700   1.070000
    16  H    2.146700   3.396345   3.872800   3.396345   2.146700
    17  H    2.736837   2.578650   3.918930   4.990735   5.074276
    18  H    5.412800   6.232802   7.612271   8.215600   7.612271
    19  Cl   3.057342   4.456874   5.254079   4.983028   3.783409
    20  Cl   5.286324   6.549198   7.713260   7.819846   6.797295
    21  Cl   4.562800   4.048303   2.743718   1.760000   2.743718
    22  Cl   5.286324   5.440665   6.797295   7.819846   7.713260
                    6          7          8          9         10
     6  C    0.000000
     7  C    2.548270   0.000000
     8  C    3.813607   1.401400   0.000000
     9  C    4.975106   2.427296   1.401400   0.000000
    10  C    5.187469   2.802800   2.427296   1.401400   0.000000
    11  C    4.342800   2.427296   2.802800   2.427296   1.401400
    12  C    2.941400   1.401400   2.427296   2.802800   2.427296
    13  H    3.396345   2.736837   2.578650   3.918930   4.990735
    14  H    3.872800   4.693509   4.965039   6.347206   7.300676
    15  H    2.146700   4.693509   5.919617   7.118798   7.300676
    16  H    1.070000   2.736837   4.127917   5.074276   4.990735
    17  H    4.127917   2.146700   1.070000   2.146700   3.396345
    18  H    6.232802   3.872800   3.396345   2.146700   1.070000
    19  Cl   2.563702   2.743718   4.048303   4.562800   4.048303
    20  Cl   5.440665   4.048303   4.562800   4.048303   2.743718
    21  Cl   4.048303   6.102800   6.910901   8.294174   8.905600
    22  Cl   6.549198   4.048303   2.743718   1.760000   2.743718
                   11         12         13         14         15
    11  C    0.000000
    12  C    1.401400   0.000000
    13  H    5.074276   4.127917   0.000000
    14  H    7.118798   5.919617   2.471400   0.000000
    15  H    6.347206   4.965039   4.942800   4.280590   0.000000
    16  H    3.918930   2.578650   4.280590   4.942800   2.471400
    17  H    3.872800   3.396345   1.871400   4.342800   6.097816
    18  H    2.146700   3.396345   5.974992   8.329571   8.329571
    19  Cl   2.743718   1.760000   5.111382   6.307038   4.042212
    20  Cl   1.760000   2.743718   6.765486   8.663168   7.184095
    21  Cl   8.294174   6.910901   4.890332   2.879094   2.879094
    22  Cl   4.048303   4.562800   4.725732   7.184095   8.663168
                   16         17         18         19         20
    16  H    0.000000
    17  H    4.671787   0.000000
    18  H    5.974992   4.280590   0.000000
    19  Cl   1.639199   4.890332   4.890332   0.000000
    20  Cl   4.725732   5.632800   2.879094   3.161400   0.000000
    21  Cl   4.890332   6.623817   9.975600   6.525618   9.488480
    22  Cl   6.765486   2.879094   2.879094   6.322800   5.475705
                   21         22
    21  Cl   0.000000
    22  Cl   9.488480   0.000000
 Stoichiometry    C12H6Cl4
 Framework group  C1[X(C12H6Cl4)]
 Deg. of freedom    60
 Full point group                 C1      NOp   1
 Largest Abelian subgroup         C1      NOp   1
 Largest concise Abelian subgroup C1      NOp   1
                         Standard orientation:                         
 ---------------------------------------------------------------------
 Center     Atomic      Atomic             Coordinates (Angstroms)
 Number     Number       Type             X           Y           Z
 ---------------------------------------------------------------------
      1          6           0        1.074135    0.290417    0.000002
      2          6           0        1.790301    1.495003   -0.000001
      3          6           0        3.191586    1.477079   -0.000002
      4          6           0        3.876706    0.254568   -0.000001
      5          6           0        3.160540   -0.950019    0.000004
      6          6           0        1.759255   -0.932094    0.000006
      7          6           0       -0.465739    0.310114    0.000003
      8          6           0       -1.150858    1.532625    0.000002
      9          6           0       -2.552144    1.550549    0.000001
     10          6           0       -3.268309    0.345963    0.000001
     11          6           0       -2.583190   -0.876548    0.000001
     12          6           0       -1.181905   -0.894473    0.000002
     13          1           0        1.267197    2.428417   -0.000004
     14          1           0        3.738395    2.396807   -0.000005
     15          1           0        3.683644   -1.883433    0.000008
     16          1           0        1.212446   -1.851823    0.000008
     17          1           0       -0.604050    2.452353   -0.000001
     18          1           0       -4.338222    0.359649   -0.000002
     19         17           0       -0.321472   -2.429808    0.000000
     20         17           0       -3.482613   -2.389372   -0.000004
     21         17           0        5.636562    0.232056   -0.000003
     22         17           0       -3.412576    3.085885   -0.000000
 ---------------------------------------------------------------------
 Rotational constants (GHZ):           0.5491278           0.1786052           0.1347707
 Standard basis: 6-311+G(d,p) (5D, 7F)
 There are   436 symmetry adapted cartesian basis functions of A   symmetry.
 There are   420 symmetry adapted basis functions of A   symmetry.
   420 basis functions,   692 primitive gaussians,   436 cartesian basis functions
    73 alpha electrons       73 beta electrons
       nuclear repulsion energy      1414.2573532144 Hartrees.
 NAtoms=   22 NActive=   22 NUniq=   22 SFac= 1.00D+00 NAtFMM=   60 NAOKFM=F Big=F
 Integral buffers will be    131072 words long.
 Raffenetti 2 integral format.
 Two-electron integral symmetry is turned on.
 One-electron integrals computed using PRISM.
 NBasis=   420 RedAO= T EigKep=  1.02D-06  NBF=   420
 NBsUse=   415 1.00D-06 EigRej=  6.90D-07 NBFU=   415
 ExpMin= 4.38D-02 ExpMax= 1.06D+05 ExpMxC= 3.62D+03 IAcc=3 IRadAn=         5 AccDes= 0.00D+00
 Harris functional with IExCor=  402 and IRadAn=       5 diagonalized for initial guess.
 HarFok:  IExCor=  402 AccDes= 0.00D+00 IRadAn=         5 IDoV= 1 UseB2=F ITyADJ=14
 ICtDFT=  3500011 ScaDFX=  1.000000  1.000000  1.000000  1.000000
 FoFCou: FMM=F IPFlag=           0 FMFlag=      100000 FMFlg1=           0
         NFxFlg=           0 DoJE=T BraDBF=F KetDBF=T FulRan=T
         wScrn=  0.000000 ICntrl=       500 IOpCl=  0 I1Cent=   200000004 NGrid=           0
         NMat0=    1 NMatS0=      1 NMatT0=    0 NMatD0=    1 NMtDS0=    0 NMtDT0=    0
 Petite list used in FoFCou.
 Requested convergence on RMS density matrix=1.00D-08 within  32 cycles.
 Requested convergence on MAX density matrix=1.00D-06.
 Requested convergence on             energy=1.00D-06.
 No special actions if energy rises.
 SCF Done:  E(RB3LYP) =  -2301.83996589     A.U. after   17 cycles
            NFock= 17  Conv=0.21D-08     -V/T= 2.0027
 QCSCF skips out because SCF is already converged.

 **********************************************************************

            Population analysis using the SCF Density.

 **********************************************************************

 Orbital symmetries:
       Occupied  (A) (A) (A) (A) (A) (A) (A) (A) (A) (A) (A) (A)
                 (A) (A) (A) (A) (A) (A) (A) (A) (A) (A) (A) (A)
                 (A) (A) (A) (A) (A) (A) (A) (A) (A) (A) (A) (A)
                 (A) (A) (A) (A) (A) (A) (A) (A) (A) (A) (A) (A)
                 (A) (A) (A) (A) (A) (A) (A) (A) (A) (A) (A) (A)
                 (A) (A) (A) (A) (A) (A) (A) (A) (A) (A) (A) (A)
                 (A)
       Virtual   (A) (A) (A) (A) (A) (A) (A) (A) (A) (A) (A) (A)
                 (A) (A) (A) (A) (A) (A) (A) (A) (A) (A) (A) (A)
                 (A) (A) (A) (A) (A) (A) (A) (A) (A) (A) (A) (A)
                 (A) (A) (A) (A) (A) (A) (A) (A) (A) (A) (A) (A)
                 (A) (A) (A) (A) (A) (A) (A) (A) (A) (A) (A) (A)
                 (A) (A) (A) (A) (A) (A) (A) (A) (A) (A) (A) (A)
                 (A) (A) (A) (A) (A) (A) (A) (A) (A) (A) (A) (A)
                 (A) (A) (A) (A) (A) (A) (A) (A) (A) (A) (A) (A)
                 (A) (A) (A) (A) (A) (A) (A) (A) (A) (A) (A) (A)
                 (A) (A) (A) (A) (A) (A) (A) (A) (A) (A) (A) (A)
                 (A) (A) (A) (A) (A) (A) (A) (A) (A) (A) (A) (A)
                 (A) (A) (A) (A) (A) (A) (A) (A) (A) (A) (A) (A)
                 (A) (A) (A) (A) (A) (A) (A) (A) (A) (A) (A) (A)
                 (A) (A) (A) (A) (A) (A) (A) (A) (A) (A) (A) (A)
                 (A) (A) (A) (A) (A) (A) (A) (A) (A) (A) (A) (A)
                 (A) (A) (A) (A) (A) (A) (A) (A) (A) (A) (A) (A)
                 (A) (A) (A) (A) (A) (A) (A) (A) (A) (A) (A) (A)
                 (A) (A) (A) (A) (A) (A) (A) (A) (A) (A) (A) (A)
                 (A) (A) (A) (A) (A) (A) (A) (A) (A) (A) (A) (A)
                 (A) (A) (A) (A) (A) (A) (A) (A) (A) (A) (A) (A)
                 (A) (A) (A) (A) (A) (A) (A) (A) (A) (A) (A) (A)
                 (A) (A) (A) (A) (A) (A) (A) (A) (A) (A) (A) (A)
                 (A) (A) (A) (A) (A) (A) (A) (A) (A) (A) (A) (A)
                 (A) (A) (A) (A) (A) (A) (A) (A) (A) (A) (A) (A)
                 (A) (A) (A) (A) (A) (A) (A) (A) (A) (A) (A) (A)
                 (A) (A) (A) (A) (A) (A) (A) (A) (A) (A) (A) (A)
                 (A) (A) (A) (A) (A) (A) (A) (A) (A) (A) (A) (A)
                 (A) (A) (A) (A) (A) (A) (A) (A) (A) (A) (A) (A)
                 (A) (A) (A) (A) (A) (A)
 The electronic state is 1-A.
 Alpha  occ. eigenvalues -- -101.57898-101.57806-101.57754-101.56195 -10.27898
 Alpha  occ. eigenvalues --  -10.27486 -10.27279 -10.25203 -10.23824 -10.22204
 Alpha  occ. eigenvalues --  -10.21768 -10.21584 -10.20298 -10.20184 -10.19680
 Alpha  occ. eigenvalues --  -10.17781  -9.49693  -9.49227  -9.49179  -9.47637
 Alpha  occ. eigenvalues --   -7.26110  -7.25725  -7.25659  -7.25146  -7.25107
 Alpha  occ. eigenvalues --   -7.24706  -7.24655  -7.24645  -7.24620  -7.24096
 Alpha  occ. eigenvalues --   -7.23126  -7.23086  -0.94929  -0.90884  -0.90245
 Alpha  occ. eigenvalues --   -0.88716  -0.85896  -0.84273  -0.79013  -0.77260
 Alpha  occ. eigenvalues --   -0.75388  -0.74371  -0.66101  -0.64376  -0.62470
 Alpha  occ. eigenvalues --   -0.60827  -0.55035  -0.53550  -0.53077  -0.50259
 Alpha  occ. eigenvalues --   -0.48725  -0.47814  -0.46574  -0.45630  -0.45593
 Alpha  occ. eigenvalues --   -0.45214  -0.42156  -0.41244  -0.40990  -0.39879
 Alpha  occ. eigenvalues --   -0.39626  -0.38050  -0.37519  -0.35518  -0.34321
 Alpha  occ. eigenvalues --   -0.33726  -0.33521  -0.32683  -0.29582  -0.28630
 Alpha  occ. eigenvalues --   -0.27735  -0.27098  -0.25000
 Alpha virt. eigenvalues --   -0.07485  -0.05841  -0.03915  -0.03473  -0.01288
 Alpha virt. eigenvalues --   -0.00871  -0.00522   0.00612   0.00871   0.01278
 Alpha virt. eigenvalues --    0.02007   0.02852   0.03682   0.04117   0.04283
 Alpha virt. eigenvalues --    0.05317   0.05604   0.06040   0.06434   0.06586
 Alpha virt. eigenvalues --    0.07705   0.08121   0.08200   0.08470   0.08879
 Alpha virt. eigenvalues --    0.09672   0.09766   0.10165   0.10553   0.11156
 Alpha virt. eigenvalues --    0.11530   0.12122   0.12413   0.12644   0.13135
 Alpha virt. eigenvalues --    0.13299   0.13975   0.14135   0.14368   0.14811
 Alpha virt. eigenvalues --    0.15654   0.15781   0.16479   0.16509   0.16915
 Alpha virt. eigenvalues --    0.16956   0.17721   0.18263   0.18287   0.18971
 Alpha virt. eigenvalues --    0.19549   0.19911   0.20289   0.20634   0.20838
 Alpha virt. eigenvalues --    0.21414   0.21645   0.21666   0.21884   0.22593
 Alpha virt. eigenvalues --    0.22822   0.23067   0.23540   0.24244   0.24999
 Alpha virt. eigenvalues --    0.25562   0.25953   0.26556   0.26771   0.27569
 Alpha virt. eigenvalues --    0.27980   0.29376   0.29721   0.30471   0.31078
 Alpha virt. eigenvalues --    0.31723   0.32282   0.32735   0.33515   0.34526
 Alpha virt. eigenvalues --    0.35172   0.35741   0.36656   0.37303   0.40607
 Alpha virt. eigenvalues --    0.42138   0.42785   0.42821   0.43848   0.44143
 Alpha virt. eigenvalues --    0.44710   0.44959   0.46044   0.46139   0.46940
 Alpha virt. eigenvalues --    0.48105   0.48644   0.49899   0.50171   0.51115
 Alpha virt. eigenvalues --    0.51228   0.52620   0.52956   0.53445   0.54116
 Alpha virt. eigenvalues --    0.55761   0.56486   0.57338   0.57906   0.58098
 Alpha virt. eigenvalues --    0.58640   0.58919   0.60007   0.61099   0.61429
 Alpha virt. eigenvalues --    0.62841   0.63359   0.63729   0.64518   0.65566
 Alpha virt. eigenvalues --    0.66603   0.67044   0.67227   0.67964   0.68640
 Alpha virt. eigenvalues --    0.69596   0.71596   0.73475   0.75572   0.76630
 Alpha virt. eigenvalues --    0.79722   0.81452   0.82573   0.82593   0.82919
 Alpha virt. eigenvalues --    0.82983   0.83583   0.83769   0.84191   0.84396
 Alpha virt. eigenvalues --    0.85323   0.85502   0.85546   0.86187   0.86420
 Alpha virt. eigenvalues --    0.86755   0.87950   0.88554   0.88800   0.89664
 Alpha virt. eigenvalues --    0.89902   0.90740   0.92193   0.93330   0.93887
 Alpha virt. eigenvalues --    0.94107   0.94532   0.95201   0.95362   0.96620
 Alpha virt. eigenvalues --    0.98031   0.98184   0.98377   0.99690   0.99996
 Alpha virt. eigenvalues --    1.03037   1.03645   1.05828   1.06719   1.07095
 Alpha virt. eigenvalues --    1.07694   1.10723   1.11234   1.12159   1.12712
 Alpha virt. eigenvalues --    1.16532   1.18463   1.20387   1.21429   1.23687
 Alpha virt. eigenvalues --    1.25358   1.26191   1.26747   1.28001   1.28837
 Alpha virt. eigenvalues --    1.30230   1.31193   1.33915   1.35231   1.39656
 Alpha virt. eigenvalues --    1.43798   1.45640   1.48363   1.49469   1.51492
 Alpha virt. eigenvalues --    1.54126   1.54348   1.55006   1.55176   1.58275
 Alpha virt. eigenvalues --    1.59420   1.59599   1.61317   1.65884   1.65953
 Alpha virt. eigenvalues --    1.66537   1.69037   1.70493   1.71767   1.75060
 Alpha virt. eigenvalues --    1.76676   1.80486   1.80698   1.82870   1.84550
 Alpha virt. eigenvalues --    1.86143   1.86187   1.90052   1.90179   1.90535
 Alpha virt. eigenvalues --    1.93178   1.93298   1.93615   1.96502   1.97091
 Alpha virt. eigenvalues --    1.98382   1.99196   2.02370   2.04835   2.06402
 Alpha virt. eigenvalues --    2.07084   2.08950   2.09384   2.12842   2.21138
 Alpha virt. eigenvalues --    2.22144   2.23185   2.24578   2.25036   2.25212
 Alpha virt. eigenvalues --    2.25963   2.28087   2.29016   2.30677   2.34027
 Alpha virt. eigenvalues --    2.35136   2.35374   2.39883   2.41807   2.41869
 Alpha virt. eigenvalues --    2.42649   2.47762   2.50929   2.51654   2.53912
 Alpha virt. eigenvalues --    2.55623   2.56347   2.58379   2.60098   2.62350
 Alpha virt. eigenvalues --    2.63678   2.63722   2.65611   2.66694   2.69509
 Alpha virt. eigenvalues --    2.70915   2.73218   2.73329   2.73671   2.74408
 Alpha virt. eigenvalues --    2.74689   2.78448   2.79953   2.81278   2.81419
 Alpha virt. eigenvalues --    2.83457   2.85249   2.91106   2.92852   2.93137
 Alpha virt. eigenvalues --    2.95613   3.03414   3.04620   3.06570   3.08343
 Alpha virt. eigenvalues --    3.12035   3.13282   3.17507   3.19289   3.21459
 Alpha virt. eigenvalues --    3.25265   3.31457   3.35543   3.40908   3.43253
 Alpha virt. eigenvalues --    3.50856   3.55988   3.59361   3.65715   3.69959
 Alpha virt. eigenvalues --    3.79384   3.79948   3.95049   4.01596   4.09846
 Alpha virt. eigenvalues --    4.16366   4.20546   4.46086   4.79074   4.83180
 Alpha virt. eigenvalues --    9.75242   9.77415   9.77903   9.86810  23.38487
 Alpha virt. eigenvalues --   23.59435  23.80711  23.85014  23.87407  23.95028
 Alpha virt. eigenvalues --   23.96154  24.00928  24.01756  24.07057  24.07891
 Alpha virt. eigenvalues --   24.14615  25.77815  25.80781  25.82365  25.87611
 Alpha virt. eigenvalues --   26.08699  26.12141  26.19639  26.48888  26.59465
 Alpha virt. eigenvalues --   26.60650  26.76591  26.84622 215.74270 215.76475
 Alpha virt. eigenvalues --  215.77332 215.89183
          Condensed to atoms (all electrons):
               1          2          3          4          5          6
     1  C   17.078624  -6.510318   4.601495  -4.050256  -2.624849   0.460794
     2  C   -6.510318  26.654950  -6.272853   3.379905  -2.033736  -3.513165
     3  C    4.601495  -6.272853  19.547837  -3.397862  -4.204603  -2.230057
     4  C   -4.050256   3.379905  -3.397862  13.531141   1.174945  -1.917473
     5  C   -2.624849  -2.033736  -4.204603   1.174945  11.696158   1.772010
     6  C    0.460794  -3.513165  -2.230057  -1.917473   1.772010  12.949622
     7  C    4.491561  -1.139330  -0.365737  -1.040020  -0.902676  -0.313795
     8  C   -2.071084   4.663431  -1.041490   0.054896  -0.798021  -2.418051
     9  C   -1.762471  -3.637156   0.438389  -0.492614   0.083839   0.193376
    10  C   -0.650181   1.383542  -0.011340   0.090255  -0.179001   0.080265
    11  C   -2.689798  -3.184668  -0.111035  -0.257409   0.909387   1.384574
    12  C   -0.253439  -4.096369  -0.295169  -0.812156   1.277118   0.943384
    13  H    0.134467   0.189916  -0.063174  -0.062796  -0.009088  -0.005866
    14  H    0.014424  -0.036671   0.265287   0.062723   0.026963   0.011889
    15  H    0.094998  -0.022085   0.055636  -0.019570   0.300486  -0.067352
    16  H   -0.297622  -0.079398  -0.036495   0.022932   0.150112   0.594751
    17  H    0.043740   0.106796   0.047531   0.004890  -0.006442  -0.004549
    18  H    0.009469   0.001942   0.000222   0.000021   0.000079  -0.000119
    19  Cl   0.432751   0.695142  -0.145414  -0.063578  -0.766850  -1.288640
    20  Cl  -0.077062  -0.110898  -0.000726  -0.005676   0.046224   0.049053
    21  Cl  -0.298352   0.173429  -0.019638  -0.961588   0.355443   0.061095
    22  Cl  -0.081557  -0.134376   0.007714  -0.007472   0.001530  -0.014436
               7          8          9         10         11         12
     1  C    4.491561  -2.071084  -1.762471  -0.650181  -2.689798  -0.253439
     2  C   -1.139330   4.663431  -3.637156   1.383542  -3.184668  -4.096369
     3  C   -0.365737  -1.041490   0.438389  -0.011340  -0.111035  -0.295169
     4  C   -1.040020   0.054896  -0.492614   0.090255  -0.257409  -0.812156
     5  C   -0.902676  -0.798021   0.083839  -0.179001   0.909387   1.277118
     6  C   -0.313795  -2.418051   0.193376   0.080265   1.384574   0.943384
     7  C   15.478528  -2.933461  -4.599073   1.422861  -1.385767  -1.467716
     8  C   -2.933461  18.715827  -2.154522  -4.247753  -4.374809   2.022695
     9  C   -4.599073  -2.154522  21.160215  -4.395248  -0.683147   1.314688
    10  C    1.422861  -4.247753  -4.395248  24.826282  -6.127709  -5.349932
    11  C   -1.385767  -4.374809  -0.683147  -6.127709  23.092905  -0.273304
    12  C   -1.467716   2.022695   1.314688  -5.349932  -0.273304  14.164660
    13  H    0.061919   0.002891   0.028704  -0.012098   0.011573   0.041446
    14  H    0.002778   0.007602  -0.000158   0.000387  -0.000342   0.001443
    15  H    0.014172   0.002823   0.000394   0.000103   0.000554   0.000575
    16  H   -0.105925  -0.033423   0.000920  -0.007494   0.063280   0.201259
    17  H    0.060244   0.278093  -0.163047   0.076107  -0.003882  -0.095045
    18  H    0.042211   0.056525  -0.031806   0.175938   0.038496   0.059563
    19  Cl  -0.091451   0.767777   0.275187   0.635961  -0.564867  -1.549263
    20  Cl  -0.326869   0.024008   0.042381  -0.654528  -0.418255   0.814097
    21  Cl  -0.056579  -0.019375  -0.008393  -0.001314  -0.005432  -0.038364
    22  Cl  -0.434793   0.400027  -0.588854  -0.193196   0.099023   0.154082
              13         14         15         16         17         18
     1  C    0.134467   0.014424   0.094998  -0.297622   0.043740   0.009469
     2  C    0.189916  -0.036671  -0.022085  -0.079398   0.106796   0.001942
     3  C   -0.063174   0.265287   0.055636  -0.036495   0.047531   0.000222
     4  C   -0.062796   0.062723  -0.019570   0.022932   0.004890   0.000021
     5  C   -0.009088   0.026963   0.300486   0.150112  -0.006442   0.000079
     6  C   -0.005866   0.011889  -0.067352   0.594751  -0.004549  -0.000119
     7  C    0.061919   0.002778   0.014172  -0.105925   0.060244   0.042211
     8  C    0.002891   0.007602   0.002823  -0.033423   0.278093   0.056525
     9  C    0.028704  -0.000158   0.000394   0.000920  -0.163047  -0.031806
    10  C   -0.012098   0.000387   0.000103  -0.007494   0.076107   0.175938
    11  C    0.011573  -0.000342   0.000554   0.063280  -0.003882   0.038496
    12  C    0.041446   0.001443   0.000575   0.201259  -0.095045   0.059563
    13  H    0.561508  -0.007941   0.000097  -0.000224   0.002242   0.000000
    14  H   -0.007941   0.515535  -0.000360   0.000104   0.000028  -0.000000
    15  H    0.000097  -0.000360   0.526026  -0.014697   0.000000  -0.000000
    16  H   -0.000224   0.000104  -0.014697   0.707659  -0.000092   0.000004
    17  H    0.002242   0.000028   0.000000  -0.000092   0.533342  -0.000280
    18  H    0.000000  -0.000000  -0.000000   0.000004  -0.000280   0.490177
    19  Cl   0.000112  -0.000067   0.002236  -0.300117  -0.001457  -0.000428
    20  Cl   0.000070  -0.000001  -0.000018   0.006175   0.000813  -0.004022
    21  Cl  -0.000393  -0.011601  -0.013148   0.000681   0.000054   0.000000
    22  Cl   0.000498   0.000003  -0.000000   0.000123  -0.023874  -0.006017
              19         20         21         22
     1  C    0.432751  -0.077062  -0.298352  -0.081557
     2  C    0.695142  -0.110898   0.173429  -0.134376
     3  C   -0.145414  -0.000726  -0.019638   0.007714
     4  C   -0.063578  -0.005676  -0.961588  -0.007472
     5  C   -0.766850   0.046224   0.355443   0.001530
     6  C   -1.288640   0.049053   0.061095  -0.014436
     7  C   -0.091451  -0.326869  -0.056579  -0.434793
     8  C    0.767777   0.024008  -0.019375   0.400027
     9  C    0.275187   0.042381  -0.008393  -0.588854
    10  C    0.635961  -0.654528  -0.001314  -0.193196
    11  C   -0.564867  -0.418255  -0.005432   0.099023
    12  C   -1.549263   0.814097  -0.038364   0.154082
    13  H    0.000112   0.000070  -0.000393   0.000498
    14  H   -0.000067  -0.000001  -0.011601   0.000003
    15  H    0.002236  -0.000018  -0.013148  -0.000000
    16  H   -0.300117   0.006175   0.000681   0.000123
    17  H   -0.001457   0.000813   0.000054  -0.023874
    18  H   -0.000428  -0.004022   0.000000  -0.006017
    19  Cl  18.523095  -0.268311   0.000438   0.000678
    20  Cl  -0.268311  17.369981   0.000001  -0.020359
    21  Cl   0.000438   0.000001  17.426918  -0.000007
    22  Cl   0.000678  -0.020359  -0.000007  17.397648
 Mulliken charges:
               1
     1  C    0.004666
     2  C   -0.478030
     3  C   -0.768519
     4  C    0.766762
     5  C   -0.269025
     6  C   -0.727308
     7  C   -0.411080
     8  C   -0.904607
     9  C    0.978394
    10  C   -0.861906
    11  C    0.480632
    12  C   -0.764253
    13  H    0.126136
    14  H    0.147974
    15  H    0.139132
    16  H    0.127489
    17  H    0.144790
    18  H    0.168023
    19  Cl   0.707068
    20  Cl   0.533921
    21  Cl   0.416126
    22  Cl   0.443614
 Sum of Mulliken charges =  -0.00000
 Mulliken charges with hydrogens summed into heavy atoms:
               1
     1  C    0.004666
     2  C   -0.351893
     3  C   -0.620545
     4  C    0.766762
     5  C   -0.129893
     6  C   -0.599819
     7  C   -0.411080
     8  C   -0.759817
     9  C    0.978394
    10  C   -0.693882
    11  C    0.480632
    12  C   -0.764253
    19  Cl   0.707068
    20  Cl   0.533921
    21  Cl   0.416126
    22  Cl   0.443614
 Electronic spatial extent (au):  <R**2>=           6968.7208
 Charge=             -0.0000 electrons
 Dipole moment (field-independent basis, Debye):
    X=             -0.8147    Y=              0.6324    Z=              0.0000  Tot=              1.0313
 Quadrupole moment (field-independent basis, Debye-Ang):
   XX=           -128.0906   YY=           -115.5792   ZZ=           -124.2135
   XY=             -0.3477   XZ=              0.0000   YZ=             -0.0000
 Traceless Quadrupole moment (field-independent basis, Debye-Ang):
   XX=             -5.4629   YY=              7.0486   ZZ=             -1.5858
   XY=             -0.3477   XZ=              0.0000   YZ=             -0.0000
 Octapole moment (field-independent basis, Debye-Ang**2):
  XXX=            -74.0806  YYY=             -7.3422  ZZZ=             -0.0001  XYY=             23.6061
  XXY=             -8.1848  XXZ=             -0.0000  XZZ=             -6.2916  YZZ=             -5.1256
  YYZ=             -0.0000  XYZ=             -0.0001
 Hexadecapole moment (field-independent basis, Debye-Ang**3):
 XXXX=          -7020.4979 YYYY=          -2169.4787 ZZZZ=           -145.2291 XXXY=             -6.7689
 XXXZ=              0.0003 YYYX=             13.1973 YYYZ=             -0.0001 ZZZX=             -0.0000
 ZZZY=              0.0000 XXYY=          -1483.9977 XXZZ=          -1207.0012 YYZZ=           -415.0614
 XXYZ=             -0.0002 YYXZ=              0.0001 ZZXY=             -0.5097
 N-N= 1.414257353214D+03 E-N=-8.272545044457D+03  KE= 2.295663207899D+03
 Calling FoFJK, ICntrl=      2127 FMM=F ISym2X=0 I1Cent= 0 IOpClX= 0 NMat=1 NMatS=1 NMatT=0.
 ***** Axes restored to original set *****
 -------------------------------------------------------------------
 Center     Atomic                   Forces (Hartrees/Bohr)
 Number     Number              X              Y              Z
 -------------------------------------------------------------------
      1        6          -0.014203109   -0.026526286   -0.000302689
      2        6          -0.004004926    0.021284096    0.005316922
      3        6          -0.010617702   -0.003112242    0.002913662
      4        6          -0.008038860   -0.008461529    0.001059054
      5        6           0.013323557   -0.011783024   -0.006602407
      6        6           0.048197803    0.030173811   -0.010212279
      7        6           0.016975121    0.030714763    0.000176107
      8        6          -0.016570337   -0.011355963    0.003326528
      9        6          -0.002926494    0.014566509    0.003699821
     10        6           0.004709296    0.006477160   -0.000335004
     11        6           0.001036172   -0.000297055   -0.000396968
     12        6          -0.000005799   -0.003714172   -0.000695741
     13        1           0.007235576   -0.003221370   -0.002988860
     14        1           0.008630177    0.000598544   -0.002730832
     15        1          -0.003760243    0.008150659    0.002769630
     16        1           0.041396202    0.028004204   -0.008379113
     17        1           0.005271362   -0.002386730   -0.002185052
     18        1          -0.005103074   -0.006469144    0.000466233
     19       17          -0.084864555   -0.060022457    0.016686815
     20       17           0.007123300   -0.004617966   -0.003214220
     21       17          -0.000699883   -0.002484620   -0.000236042
     22       17          -0.003103583    0.004482812    0.001864435
 -------------------------------------------------------------------
 Cartesian Forces:  Max     0.084864555 RMS     0.018028322

 GradGradGradGradGradGradGradGradGradGradGradGradGradGradGradGradGradGrad
 Berny optimization.
 FormGI is forming the generalized inverse of G from B-inverse, IUseBI=4.
 Internal  Forces:  Max     0.279285022 RMS     0.050857136
 Search for a local minimum.
 Step number   1 out of a maximum of  121
 All quantities printed in internal units (Hartrees-Bohrs-Radians)
 Mixed Optimization -- RFO/linear search
 Second derivative matrix not updated -- first step.
 ITU=  0
     Eigenvalues ---    0.00237   0.01506   0.01506   0.02070   0.02070
     Eigenvalues ---    0.02070   0.02070   0.02070   0.02070   0.02070
     Eigenvalues ---    0.02070   0.02070   0.02070   0.02070   0.02070
     Eigenvalues ---    0.02070   0.02070   0.02070   0.02070   0.16000
     Eigenvalues ---    0.16000   0.16000   0.16000   0.16000   0.16000
     Eigenvalues ---    0.22000   0.22981   0.23478   0.23493   0.24000
     Eigenvalues ---    0.25000   0.25000   0.25000   0.25000   0.25000
     Eigenvalues ---    0.25000   0.25000   0.28519   0.29539   0.29539
     Eigenvalues ---    0.29539   0.29539   0.37230   0.37230   0.37230
     Eigenvalues ---    0.37230   0.37230   0.37230   0.41268   0.41554
     Eigenvalues ---    0.41640   0.41716   0.45389   0.45389   0.45389
     Eigenvalues ---    0.45389   0.45389   0.45389   0.45389   0.45389
 RFO step:  Lambda=-4.20585122D-01 EMin= 2.36824243D-03
 Linear search not attempted -- first point.
 Maximum step size (   0.300) exceeded in Quadratic search.
    -- Step size scaled by   0.381
 Iteration  1 RMS(Cart)=  0.20284953 RMS(Int)=  0.01003997
 Iteration  2 RMS(Cart)=  0.03696403 RMS(Int)=  0.00030395
 Iteration  3 RMS(Cart)=  0.00057319 RMS(Int)=  0.00004492
 Iteration  4 RMS(Cart)=  0.00000017 RMS(Int)=  0.00004492
 Variable       Old X    -DE/DX   Delta X   Delta X   Delta X     New X
                                 (Linear)    (Quad)   (Total)
    R1        2.64826   0.01744   0.00000   0.00789   0.00794   2.65620
    R2        2.64826   0.01726   0.00000   0.00791   0.00795   2.65621
    R3        2.91018   0.06736   0.00000   0.03641   0.03641   2.94659
    R4        2.64826  -0.01391   0.00000  -0.00616  -0.00616   2.64210
    R5        2.02201   0.00685   0.00000   0.00329   0.00329   2.02530
    R6        2.64826  -0.02744   0.00000  -0.01235  -0.01239   2.63587
    R7        2.02201   0.00906   0.00000   0.00436   0.00436   2.02637
    R8        2.64826  -0.02550   0.00000  -0.01141  -0.01145   2.63681
    R9        3.32592  -0.00250   0.00000  -0.00133  -0.00133   3.32459
   R10        2.64826  -0.00142   0.00000  -0.00052  -0.00053   2.64774
   R11        2.02201   0.00938   0.00000   0.00451   0.00451   2.02652
   R12        2.02201  -0.04255   0.00000  -0.02047  -0.02047   2.00154
   R13        2.64826   0.01785   0.00000   0.00830   0.00840   2.65666
   R14        2.64826   0.12249   0.00000   0.05469   0.05477   2.70303
   R15        2.64826  -0.02513   0.00000  -0.01171  -0.01169   2.63657
   R16        2.02201   0.00564   0.00000   0.00271   0.00271   2.02472
   R17        2.64826  -0.04385   0.00000  -0.02039  -0.02046   2.62780
   R18        3.32592  -0.00572   0.00000  -0.00305  -0.00305   3.32287
   R19        2.64826  -0.03231   0.00000  -0.01461  -0.01470   2.63356
   R20        2.02201   0.00816   0.00000   0.00393   0.00393   2.02593
   R21        2.64826   0.01206   0.00000   0.00601   0.00599   2.65425
   R22        3.32592  -0.00767   0.00000  -0.00409  -0.00409   3.32183
   R23        3.32592  -0.00762   0.00000  -0.00406  -0.00406   3.32186
    A1        2.09440  -0.06222   0.00000  -0.03481  -0.03472   2.05968
    A2        2.09440  -0.13262   0.00000  -0.07572  -0.07577   2.01863
    A3        2.09440   0.19483   0.00000   0.11053   0.11049   2.20488
    A4        2.09440   0.03924   0.00000   0.02331   0.02336   2.11776
    A5        2.09440  -0.01459   0.00000  -0.00835  -0.00837   2.08602
    A6        2.09440  -0.02465   0.00000  -0.01496  -0.01499   2.07941
    A7        2.09440  -0.00128   0.00000  -0.00174  -0.00178   2.09261
    A8        2.09440   0.00106   0.00000   0.00114   0.00116   2.09556
    A9        2.09440   0.00023   0.00000   0.00060   0.00062   2.09501
   A10        2.09440  -0.00787   0.00000  -0.00566  -0.00575   2.08865
   A11        2.09440   0.00277   0.00000   0.00217   0.00221   2.09661
   A12        2.09440   0.00509   0.00000   0.00349   0.00353   2.09793
   A13        2.09440   0.01064   0.00000   0.00576   0.00571   2.10010
   A14        2.09440  -0.00582   0.00000  -0.00321  -0.00318   2.09121
   A15        2.09440  -0.00481   0.00000  -0.00255  -0.00252   2.09187
   A16        2.09440   0.02149   0.00000   0.01314   0.01318   2.10758
   A17        2.09440   0.01709   0.00000   0.01172   0.01170   2.10609
   A18        2.09440  -0.03858   0.00000  -0.02486  -0.02488   2.06952
   A19        2.09440  -0.20494   0.00000  -0.11767  -0.11776   1.97663
   A20        2.09440   0.27929   0.00000   0.15776   0.15767   2.25207
   A21        2.09440  -0.07434   0.00000  -0.04009  -0.03991   2.05448
   A22        2.09440   0.05518   0.00000   0.03235   0.03247   2.12686
   A23        2.09440  -0.02502   0.00000  -0.01448  -0.01454   2.07985
   A24        2.09440  -0.03017   0.00000  -0.01787  -0.01793   2.07647
   A25        2.09440   0.00823   0.00000   0.00183   0.00177   2.09617
   A26        2.09440  -0.00302   0.00000  -0.00029  -0.00026   2.09413
   A27        2.09440  -0.00521   0.00000  -0.00154  -0.00151   2.09289
   A28        2.09440  -0.01094   0.00000  -0.00917  -0.00934   2.08505
   A29        2.09440   0.00670   0.00000   0.00539   0.00548   2.09987
   A30        2.09440   0.00424   0.00000   0.00378   0.00386   2.09826
   A31        2.09440   0.04180   0.00000   0.02392   0.02380   2.11819
   A32        2.09440  -0.02898   0.00000  -0.01655  -0.01649   2.07790
   A33        2.09440  -0.01282   0.00000  -0.00736  -0.00730   2.08709
   A34        2.09440  -0.01993   0.00000  -0.00883  -0.00878   2.08562
   A35        2.09440   0.18458   0.00000   0.10374   0.10371   2.19810
   A36        2.09440  -0.16465   0.00000  -0.09490  -0.09493   1.99946
    D1        0.00000   0.00000   0.00000   0.00000   0.00000   0.00000
    D2        3.14159   0.00000   0.00000   0.00000   0.00000   3.14159
    D3       -3.14159   0.00000   0.00000  -0.00000  -0.00000  -3.14159
    D4       -0.00000  -0.00000   0.00000  -0.00000  -0.00000  -0.00000
    D5       -0.00000  -0.00000   0.00000  -0.00000  -0.00000  -0.00000
    D6        3.14159  -0.00000   0.00000  -0.00000  -0.00000   3.14159
    D7        3.14159   0.00000   0.00000   0.00000   0.00000   3.14159
    D8        0.00000  -0.00000   0.00000  -0.00000  -0.00000   0.00000
    D9       -0.00000  -0.00000   0.00000  -0.00000  -0.00000  -0.00000
   D10        3.14159  -0.00000   0.00000  -0.00000  -0.00000   3.14159
   D11        3.14159  -0.00000   0.00000  -0.00000  -0.00000   3.14159
   D12       -0.00000  -0.00000   0.00000  -0.00000  -0.00000  -0.00000
   D13        0.00000  -0.00000   0.00000  -0.00000  -0.00000   0.00000
   D14        3.14159  -0.00000   0.00000  -0.00000  -0.00000   3.14159
   D15       -3.14159  -0.00000   0.00000  -0.00000  -0.00000  -3.14159
   D16        0.00000  -0.00000   0.00000  -0.00000  -0.00000   0.00000
   D17       -0.00000  -0.00000   0.00000   0.00000   0.00000  -0.00000
   D18        3.14159   0.00000   0.00000   0.00000   0.00000   3.14159
   D19        3.14159  -0.00000   0.00000  -0.00000  -0.00000   3.14159
   D20        0.00000  -0.00000   0.00000  -0.00000  -0.00000   0.00000
   D21        0.00000   0.00000   0.00000   0.00000   0.00000   0.00000
   D22       -3.14159   0.00000   0.00000   0.00000   0.00000  -3.14159
   D23       -3.14159  -0.00000   0.00000  -0.00000  -0.00000  -3.14159
   D24        0.00000   0.00000   0.00000   0.00000   0.00000   0.00000
   D25       -0.00000   0.00000   0.00000   0.00000   0.00000  -0.00000
   D26        3.14159   0.00000   0.00000   0.00000   0.00000   3.14159
   D27        3.14159   0.00000   0.00000   0.00000   0.00000   3.14159
   D28       -0.00000   0.00000   0.00000   0.00000   0.00000  -0.00000
   D29        3.14159   0.00000   0.00000   0.00000   0.00000   3.14159
   D30        0.00000   0.00000   0.00000   0.00000   0.00000   0.00000
   D31        0.00000   0.00000   0.00000   0.00000   0.00000   0.00000
   D32       -3.14159  -0.00000   0.00000  -0.00000  -0.00000  -3.14159
   D33       -3.14159   0.00000   0.00000   0.00000   0.00000  -3.14159
   D34        0.00000  -0.00000   0.00000  -0.00000  -0.00000   0.00000
   D35       -0.00000  -0.00000   0.00000  -0.00000  -0.00000  -0.00000
   D36        3.14159  -0.00000   0.00000  -0.00000  -0.00000   3.14159
   D37       -0.00000   0.00000   0.00000  -0.00000  -0.00000  -0.00000
   D38        3.14159  -0.00000   0.00000  -0.00000  -0.00000   3.14159
   D39        3.14159   0.00000   0.00000   0.00000   0.00000   3.14159
   D40       -0.00000   0.00000   0.00000   0.00000   0.00000  -0.00000
   D41       -0.00000  -0.00000   0.00000  -0.00000  -0.00000  -0.00000
   D42       -3.14159  -0.00000   0.00000  -0.00000  -0.00000  -3.14159
   D43        3.14159   0.00000   0.00000  -0.00000   0.00000   3.14159
   D44        0.00000  -0.00000   0.00000  -0.00000  -0.00000   0.00000
   D45        0.00000   0.00000   0.00000   0.00000   0.00000   0.00000
   D46       -3.14159  -0.00000   0.00000  -0.00000  -0.00000  -3.14159
   D47        3.14159   0.00000   0.00000   0.00000   0.00000   3.14159
   D48        0.00000  -0.00000   0.00000  -0.00000  -0.00000   0.00000
   D49        0.00000   0.00000   0.00000   0.00000   0.00000   0.00000
   D50       -3.14159   0.00000   0.00000   0.00000   0.00000  -3.14159
   D51        3.14159   0.00000   0.00000   0.00000   0.00000   3.14159
   D52       -0.00000   0.00000   0.00000   0.00000   0.00000  -0.00000
         Item               Value     Threshold  Converged?
 Maximum Force            0.279285     0.000450     NO 
 RMS     Force            0.050857     0.000300     NO 
 Maximum Displacement     0.980094     0.001800     NO 
 RMS     Displacement     0.235060     0.001200     NO 
 Predicted change in Energy=-1.487540D-01
 GradGradGradGradGradGradGradGradGradGradGradGradGradGradGradGradGradGrad

                          Input orientation:                          
 ---------------------------------------------------------------------
 Center     Atomic      Atomic             Coordinates (Angstroms)
 Number     Number       Type             X           Y           Z
 ---------------------------------------------------------------------
      1          6           0       -0.718307    1.511444    0.268900
      2          6           0        0.606098    1.399601   -0.188436
      3          6           0        1.448331    2.513504   -0.256712
      4          6           0        0.976743    3.766708    0.134019
      5          6           0       -0.334924    3.899396    0.591071
      6          6           0       -1.177070    2.781642    0.658596
      7          6           0       -1.539356    0.186030    0.290475
      8          6           0       -0.808150   -0.927189   -0.159498
      9          6           0       -1.369086   -2.203495   -0.214396
     10          6           0       -2.686790   -2.403814    0.182109
     11          6           0       -3.439050   -1.320909    0.633327
     12          6           0       -2.894075   -0.027924    0.696616
     13          1           0        0.981002    0.442466   -0.491707
     14          1           0        2.455316    2.404849   -0.608874
     15          1           0       -0.699936    4.861780    0.892069
     16          1           0       -2.167516    2.914051    1.009769
     17          1           0        0.208730   -0.793426   -0.469393
     18          1           0       -3.121234   -3.383073    0.141328
     19         17           0       -3.999382    1.202533    1.291861
     20         17           0       -5.103668   -1.586367    1.131897
     21         17           0        2.031348    5.172399    0.050577
     22         17           0       -0.409165   -3.561470   -0.785689
 ---------------------------------------------------------------------
                    Distance matrix (angstroms):
                    1          2          3          4          5
     1  C    0.000000
     2  C    1.405600   0.000000
     3  C    2.444322   1.398141   0.000000
     4  C    2.824465   2.417551   1.394843   0.000000
     5  C    2.439895   2.782468   2.412350   1.395339   0.000000
     6  C    1.405607   2.409811   2.793280   2.425787   1.401121
     7  C    1.559266   2.510993   3.826594   4.379097   3.915367
     8  C    2.477605   2.723029   4.115765   5.030374   4.907465
     9  C    3.802349   4.109054   5.494516   6.423989   6.242078
    10  C    4.383116   5.044441   6.439861   7.176290   6.740103
    11  C    3.944296   4.943651   6.275459   6.755174   6.073629
    12  C    2.699364   3.882313   5.120956   5.449677   4.688735
    13  H    2.146832   1.071743   2.136075   3.382623   3.854145
    14  H    3.411824   2.146369   1.072307   2.143066   3.385111
    15  H    3.407848   3.854853   3.383659   2.141278   1.072388
    16  H    2.148581   3.379673   3.852112   3.373474   2.122406
    17  H    2.591698   2.246376   3.538026   4.663558   4.841768
    18  H    5.454047   6.072538   7.470541   8.240924   7.810258
    19  Cl   3.450700   4.841545   5.813287   5.716416   4.603523
    20  Cl   5.438069   6.577288   7.852763   8.162266   7.288828
    21  Cl   4.583761   4.040108   2.739354   1.759296   2.740787
    22  Cl   5.190586   5.098989   6.374591   7.514572   7.587193
                    6          7          8          9         10
     6  C    0.000000
     7  C    2.646501   0.000000
     8  C    3.815863   1.405843   0.000000
     9  C    5.064640   2.448207   1.395213   0.000000
    10  C    5.421739   2.834721   2.413795   1.390570   0.000000
    11  C    4.684882   2.448928   2.775828   2.404650   1.393620
    12  C    3.292905   1.430381   2.427486   2.808672   2.439782
    13  H    3.384112   2.651372   2.277583   3.549778   4.691273
    14  H    3.865576   4.657187   4.685576   6.001541   7.084501
    15  H    2.146890   4.788442   5.884697   7.182627   7.565745
    16  H    1.059169   2.890340   4.239125   5.322156   5.406880
    17  H    3.996738   2.143021   1.071435   2.131390   3.376661
    18  H    6.484678   3.906799   3.387066   2.141953   1.072078
    19  Cl   3.295460   2.843902   4.101965   4.559418   3.995021
    20  Cl   5.892512   4.068624   4.533618   4.017518   2.722429
    21  Cl   4.047141   6.137700   6.731408   8.126314   8.926205
    22  Cl   6.550627   4.059460   2.736922   1.758386   2.732101
                   11         12         13         14         15
    11  C    0.000000
    12  C    1.404568   0.000000
    13  H    4.889995   4.080392   0.000000
    14  H    7.082929   6.019857   2.457290   0.000000
    15  H    6.767225   5.362990   4.926532   4.271411   0.000000
    16  H    4.437724   3.046501   4.275082   4.924416   2.441576
    17  H    3.847145   3.401907   1.457509   3.910955   5.887326
    18  H    2.143732   3.408367   5.644805   8.072221   8.625769
    19  Cl   2.667471   1.757853   5.344440   6.835312   4.943305
    20  Cl   1.757838   2.738707   6.616303   8.723436   7.812105
    21  Cl   8.510459   7.191699   4.875404   2.876449   2.874805
    22  Cl   4.026651   4.567050   4.248587   6.620685   8.593634
                   16         17         18         19         20
    16  H    0.000000
    17  H    4.645412   0.000000
    18  H    6.427871   4.262383   0.000000
    19  Cl   2.522816   4.979365   4.808602   0.000000
    20  Cl   5.374911   5.604861   2.852967   3.003832   0.000000
    21  Cl   4.863193   6.259663   9.987664   7.326004   9.887297
    22  Cl   6.946066   2.853752   2.871673   6.316771   5.442107
                   21         22
    21  Cl   0.000000
    22  Cl   9.106916   0.000000
 Stoichiometry    C12H6Cl4
 Framework group  C1[X(C12H6Cl4)]
 Deg. of freedom    60
 Full point group                 C1      NOp   1
 Largest Abelian subgroup         C1      NOp   1
 Largest concise Abelian subgroup C1      NOp   1
                         Standard orientation:                         
 ---------------------------------------------------------------------
 Center     Atomic      Atomic             Coordinates (Angstroms)
 Number     Number       Type             X           Y           Z
 ---------------------------------------------------------------------
      1          6           0        1.154800   -0.012285    0.000003
      2          6           0        1.847764    1.210626   -0.000001
      3          6           0        3.245215    1.254552   -0.000002
      4          6           0        3.978130    0.067782   -0.000001
      5          6           0        3.309528   -1.156940    0.000005
      6          6           0        1.909021   -1.198406    0.000006
      7          6           0       -0.400893    0.093208    0.000003
      8          6           0       -0.867246    1.419447    0.000002
      9          6           0       -2.229457    1.721112    0.000001
     10          6           0       -3.170493    0.697326    0.000001
     11          6           0       -2.741067   -0.628483    0.000001
     12          6           0       -1.374829   -0.954379    0.000002
     13          1           0        1.296711    2.129851   -0.000004
     14          1           0        3.753028    2.198993   -0.000005
     15          1           0        3.870670   -2.070798    0.000008
     16          1           0        1.430166   -2.143147    0.000009
     17          1           0       -0.157856    2.222403   -0.000000
     18          1           0       -4.218064    0.925244   -0.000002
     19         17           0       -1.035067   -2.679084   -0.000000
     20         17           0       -3.939864   -1.914127   -0.000004
     21         17           0        5.736764    0.116025   -0.000003
     22         17           0       -2.758157    3.398132    0.000000
 ---------------------------------------------------------------------
 Rotational constants (GHZ):           0.5271532           0.1742424           0.1309567
 Standard basis: 6-311+G(d,p) (5D, 7F)
 There are   436 symmetry adapted cartesian basis functions of A   symmetry.
 There are   420 symmetry adapted basis functions of A   symmetry.
   420 basis functions,   692 primitive gaussians,   436 cartesian basis functions
    73 alpha electrons       73 beta electrons
       nuclear repulsion energy      1398.4976837716 Hartrees.
 NAtoms=   22 NActive=   22 NUniq=   22 SFac= 1.00D+00 NAtFMM=   60 NAOKFM=F Big=F
 Integral buffers will be    131072 words long.
 Raffenetti 2 integral format.
 Two-electron integral symmetry is turned on.
 One-electron integrals computed using PRISM.
 NBasis=   420 RedAO= T EigKep=  1.07D-06  NBF=   420
 NBsUse=   415 1.00D-06 EigRej=  6.53D-07 NBFU=   415
 Initial guess from the checkpoint file:  "/scratch/gour/Gau-17937.chk"
 B after Tr=     0.000000   -0.000000   -0.000000
         Rot=    0.998829   -0.000000   -0.000000    0.048380 Ang=  -5.55 deg.
 ExpMin= 4.38D-02 ExpMax= 1.06D+05 ExpMxC= 3.62D+03 IAcc=3 IRadAn=         5 AccDes= 0.00D+00
 Harris functional with IExCor=  402 and IRadAn=       5 diagonalized for initial guess.
 HarFok:  IExCor=  402 AccDes= 0.00D+00 IRadAn=         5 IDoV= 1 UseB2=F ITyADJ=14
 ICtDFT=  3500011 ScaDFX=  1.000000  1.000000  1.000000  1.000000
 FoFCou: FMM=F IPFlag=           0 FMFlag=      100000 FMFlg1=           0
         NFxFlg=           0 DoJE=T BraDBF=F KetDBF=T FulRan=T
         wScrn=  0.000000 ICntrl=       500 IOpCl=  0 I1Cent=   200000004 NGrid=           0
         NMat0=    1 NMatS0=      1 NMatT0=    0 NMatD0=    1 NMtDS0=    0 NMtDT0=    0
 Petite list used in FoFCou.
 Requested convergence on RMS density matrix=1.00D-08 within  32 cycles.
 Requested convergence on MAX density matrix=1.00D-06.
 Requested convergence on             energy=1.00D-06.
 No special actions if energy rises.
 SCF Done:  E(RB3LYP) =  -2301.87799298     A.U. after   17 cycles
            NFock= 17  Conv=0.49D-08     -V/T= 2.0028
 QCSCF skips out because SCF is already converged.
 Calling FoFJK, ICntrl=      2127 FMM=F ISym2X=0 I1Cent= 0 IOpClX= 0 NMat=1 NMatS=1 NMatT=0.
 ***** Axes restored to original set *****
 -------------------------------------------------------------------
 Center     Atomic                   Forces (Hartrees/Bohr)
 Number     Number              X              Y              Z
 -------------------------------------------------------------------
      1        6          -0.013973324   -0.022326494    0.000410401
      2        6           0.002034645    0.024337086    0.003900540
      3        6          -0.008257764   -0.002978584    0.002161267
      4        6          -0.006219213   -0.004878411    0.001132499
      5        6           0.002906492   -0.008669829   -0.002585777
      6        6           0.018057948   -0.002807194   -0.006476443
      7        6           0.006568131    0.020995666    0.001779422
      8        6          -0.017369030   -0.016077072    0.002702973
      9        6          -0.001954787    0.011367917    0.002778955
     10        6           0.000572419    0.001091909    0.000016522
     11        6           0.002971603    0.000240545   -0.000933656
     12        6           0.007871464   -0.000416532   -0.002671605
     13        1           0.010585290    0.008542870   -0.001882986
     14        1           0.006955533   -0.000757191   -0.002433731
     15        1          -0.002797380    0.006358194    0.002115777
     16        1          -0.013051614    0.002023940    0.004679988
     17        1          -0.003904952   -0.010796388   -0.000741302
     18        1          -0.003671338   -0.005658224    0.000146833
     19       17           0.011618230    0.007301298   -0.002456501
     20       17           0.005251160   -0.007120138   -0.003067355
     21       17          -0.001938486   -0.002635996    0.000143591
     22       17          -0.002255027    0.002862630    0.001280587
 -------------------------------------------------------------------
 Cartesian Forces:  Max     0.024337086 RMS     0.007949854

 GradGradGradGradGradGradGradGradGradGradGradGradGradGradGradGradGradGrad
 Berny optimization.
 Using GEDIIS/GDIIS optimizer.
 FormGI is forming the generalized inverse of G from B-inverse, IUseBI=4.
 Internal  Forces:  Max     0.061065178 RMS     0.011846379
 Search for a local minimum.
 Step number   2 out of a maximum of  121
 All quantities printed in internal units (Hartrees-Bohrs-Radians)
 Mixed Optimization -- RFO/linear search
 Update second derivatives using D2CorX and points    1    2
 DE= -3.80D-02 DEPred=-1.49D-01 R= 2.56D-01
 Trust test= 2.56D-01 RLast= 3.00D-01 DXMaxT set to 3.00D-01
 ITU=  0  0
 Use linear search instead of GDIIS.
     Eigenvalues ---    0.00237   0.01479   0.01484   0.02070   0.02070
     Eigenvalues ---    0.02070   0.02070   0.02070   0.02070   0.02070
     Eigenvalues ---    0.02070   0.02070   0.02070   0.02070   0.02070
     Eigenvalues ---    0.02070   0.02070   0.02070   0.02070   0.15967
     Eigenvalues ---    0.16000   0.16000   0.16000   0.16000   0.16035
     Eigenvalues ---    0.22003   0.22936   0.23418   0.23502   0.23961
     Eigenvalues ---    0.24896   0.25000   0.25000   0.25000   0.25000
     Eigenvalues ---    0.25000   0.28451   0.29530   0.29539   0.29539
     Eigenvalues ---    0.29539   0.37074   0.37201   0.37230   0.37230
     Eigenvalues ---    0.37230   0.37230   0.40386   0.41178   0.41527
     Eigenvalues ---    0.41697   0.45050   0.45346   0.45389   0.45389
     Eigenvalues ---    0.45389   0.45389   0.45389   0.45389   2.13275
 RFO step:  Lambda=-1.22263723D-02 EMin= 2.36824243D-03
 Quartic linear search produced a step of -0.33906.
 Iteration  1 RMS(Cart)=  0.13926575 RMS(Int)=  0.00399648
 Iteration  2 RMS(Cart)=  0.00674567 RMS(Int)=  0.00004515
 Iteration  3 RMS(Cart)=  0.00001588 RMS(Int)=  0.00004491
 Iteration  4 RMS(Cart)=  0.00000000 RMS(Int)=  0.00004491
 Variable       Old X    -DE/DX   Delta X   Delta X   Delta X     New X
                                 (Linear)    (Quad)   (Total)
    R1        2.65620   0.01050  -0.00269   0.02283   0.02020   2.67640
    R2        2.65621  -0.00187  -0.00270   0.00489   0.00229   2.65850
    R3        2.94659  -0.00624  -0.01234   0.01758   0.00523   2.95182
    R4        2.64210  -0.00787   0.00209  -0.01634  -0.01429   2.62782
    R5        2.02530  -0.00339  -0.00112  -0.00288  -0.00400   2.02130
    R6        2.63587  -0.00700   0.00420  -0.02151  -0.01741   2.61847
    R7        2.02637   0.00741  -0.00148   0.01662   0.01514   2.04151
    R8        2.63681  -0.01020   0.00388  -0.02562  -0.02180   2.61501
    R9        3.32459  -0.00328   0.00045  -0.00819  -0.00773   3.31685
   R10        2.64774  -0.00858   0.00018  -0.01307  -0.01285   2.63488
   R11        2.02652   0.00725  -0.00153   0.01649   0.01496   2.04148
   R12        2.00154   0.01401   0.00694   0.00576   0.01270   2.01424
   R13        2.65666   0.00652  -0.00285   0.01676   0.01398   2.67063
   R14        2.70303  -0.01658  -0.01857   0.02637   0.00785   2.71088
   R15        2.63657  -0.00834   0.00396  -0.02244  -0.01846   2.61811
   R16        2.02472  -0.00484  -0.00092  -0.00589  -0.00681   2.01791
   R17        2.62780  -0.00864   0.00694  -0.03080  -0.02390   2.60389
   R18        3.32287  -0.00386   0.00103  -0.01093  -0.00990   3.31297
   R19        2.63356  -0.00996   0.00499  -0.02743  -0.02251   2.61105
   R20        2.02593   0.00665  -0.00133   0.01493   0.01360   2.03954
   R21        2.65425   0.00538  -0.00203   0.01302   0.01098   2.66523
   R22        3.32183  -0.00477   0.00139  -0.01378  -0.01240   3.30944
   R23        3.32186  -0.00303   0.00138  -0.01002  -0.00864   3.31322
    A1        2.05968  -0.01375   0.01177  -0.06251  -0.05058   2.00910
    A2        2.01863   0.05745   0.02569   0.07992   0.10553   2.12416
    A3        2.20488  -0.04370  -0.03746  -0.01741  -0.05496   2.14993
    A4        2.11776   0.00375  -0.00792   0.03173   0.02384   2.14159
    A5        2.08602   0.01160   0.00284   0.03833   0.04116   2.12718
    A6        2.07941  -0.01535   0.00508  -0.07006  -0.06499   2.01442
    A7        2.09261   0.00040   0.00060  -0.00066  -0.00019   2.09243
    A8        2.09556  -0.00021  -0.00039   0.00051   0.00018   2.09574
    A9        2.09501  -0.00019  -0.00021   0.00015   0.00000   2.09502
   A10        2.08865   0.00164   0.00195  -0.00309  -0.00130   2.08735
   A11        2.09661  -0.00088  -0.00075   0.00085   0.00018   2.09679
   A12        2.09793  -0.00077  -0.00120   0.00224   0.00113   2.09905
   A13        2.10010  -0.00156  -0.00193  -0.00265  -0.00461   2.09549
   A14        2.09121   0.00116   0.00108   0.00251   0.00360   2.09481
   A15        2.09187   0.00041   0.00085   0.00014   0.00101   2.09288
   A16        2.10758   0.00952  -0.00447   0.03718   0.03284   2.14041
   A17        2.10609  -0.00448  -0.00397  -0.00354  -0.00757   2.09852
   A18        2.06952  -0.00504   0.00844  -0.03363  -0.02526   2.04426
   A19        1.97663   0.06107   0.03993   0.05422   0.09409   2.07073
   A20        2.25207  -0.04905  -0.05346   0.00966  -0.04386   2.20821
   A21        2.05448  -0.01202   0.01353  -0.06389  -0.05024   2.00424
   A22        2.12686   0.00270  -0.01101   0.03479   0.02385   2.15071
   A23        2.07985   0.00922   0.00493   0.02442   0.02931   2.10917
   A24        2.07647  -0.01191   0.00608  -0.05920  -0.05316   2.02331
   A25        2.09617   0.00719  -0.00060   0.02016   0.01952   2.11569
   A26        2.09413  -0.00328   0.00009  -0.00875  -0.00864   2.08549
   A27        2.09289  -0.00391   0.00051  -0.01140  -0.01087   2.08201
   A28        2.08505  -0.00698   0.00317  -0.02700  -0.02394   2.06111
   A29        2.09987   0.00464  -0.00186   0.01852   0.01672   2.11660
   A30        2.09826   0.00234  -0.00131   0.00848   0.00722   2.10548
   A31        2.11819  -0.00025  -0.00807   0.01971   0.01157   2.12976
   A32        2.07790  -0.01326   0.00559  -0.04745  -0.04182   2.03608
   A33        2.08709   0.01351   0.00248   0.02774   0.03025   2.11734
   A34        2.08562   0.00937   0.00298   0.01623   0.01925   2.10486
   A35        2.19810  -0.02729  -0.03516   0.01889  -0.01629   2.18182
   A36        1.99946   0.01792   0.03219  -0.03513  -0.00296   1.99650
    D1        0.00000  -0.00000  -0.00000  -0.00000  -0.00000   0.00000
    D2        3.14159  -0.00000  -0.00000  -0.00000  -0.00000   3.14159
    D3       -3.14159  -0.00000   0.00000  -0.00000  -0.00000  -3.14159
    D4       -0.00000  -0.00000   0.00000   0.00000   0.00000  -0.00000
    D5       -0.00000   0.00000   0.00000   0.00000   0.00000  -0.00000
    D6        3.14159   0.00000   0.00000   0.00000   0.00000   3.14159
    D7        3.14159  -0.00000  -0.00000   0.00000   0.00000   3.14159
    D8        0.00000  -0.00000   0.00000  -0.00000  -0.00000  -0.00000
    D9       -0.00000  -0.00000   0.00000  -0.00000  -0.00000  -0.00000
   D10        3.14159  -0.00000   0.00000  -0.00000  -0.00000   3.14159
   D11        3.14159  -0.00000   0.00000  -0.00000  -0.00000   3.14159
   D12       -0.00000   0.00000   0.00000  -0.00000   0.00000  -0.00000
   D13        0.00000  -0.00000   0.00000  -0.00000  -0.00000   0.00000
   D14        3.14159   0.00000   0.00000   0.00000   0.00000   3.14159
   D15       -3.14159  -0.00000   0.00000  -0.00000  -0.00000  -3.14159
   D16        0.00000  -0.00000   0.00000  -0.00000  -0.00000   0.00000
   D17       -0.00000   0.00000  -0.00000   0.00000   0.00000  -0.00000
   D18        3.14159  -0.00000  -0.00000  -0.00000  -0.00000   3.14159
   D19        3.14159   0.00000   0.00000   0.00000   0.00000   3.14159
   D20        0.00000  -0.00000   0.00000  -0.00000  -0.00000   0.00000
   D21        0.00000  -0.00000  -0.00000  -0.00000  -0.00000   0.00000
   D22       -3.14159  -0.00000  -0.00000  -0.00000  -0.00000  -3.14159
   D23       -3.14159   0.00000   0.00000   0.00000   0.00000  -3.14159
   D24        0.00000   0.00000  -0.00000   0.00000   0.00000   0.00000
   D25       -0.00000   0.00000  -0.00000   0.00000   0.00000  -0.00000
   D26        3.14159   0.00000  -0.00000   0.00000   0.00000   3.14159
   D27        3.14159   0.00000  -0.00000   0.00000   0.00000   3.14159
   D28       -0.00000   0.00000  -0.00000   0.00000   0.00000  -0.00000
   D29        3.14159  -0.00000  -0.00000   0.00000   0.00000  -3.14159
   D30        0.00000  -0.00000  -0.00000  -0.00000  -0.00000   0.00000
   D31        0.00000  -0.00000  -0.00000  -0.00000  -0.00000   0.00000
   D32       -3.14159  -0.00000   0.00000  -0.00000  -0.00000  -3.14159
   D33       -3.14159  -0.00000  -0.00000  -0.00000  -0.00000   3.14159
   D34        0.00000  -0.00000   0.00000  -0.00000  -0.00000  -0.00000
   D35       -0.00000   0.00000   0.00000   0.00000   0.00000  -0.00000
   D36        3.14159   0.00000   0.00000   0.00000   0.00000   3.14159
   D37       -0.00000  -0.00000   0.00000   0.00000   0.00000  -0.00000
   D38        3.14159  -0.00000   0.00000  -0.00000  -0.00000   3.14159
   D39        3.14159   0.00000  -0.00000   0.00000   0.00000   3.14159
   D40       -0.00000   0.00000  -0.00000   0.00000   0.00000  -0.00000
   D41       -0.00000   0.00000   0.00000   0.00000   0.00000   0.00000
   D42       -3.14159  -0.00000   0.00000  -0.00000  -0.00000  -3.14159
   D43        3.14159   0.00000   0.00000   0.00000   0.00000  -3.14159
   D44        0.00000  -0.00000   0.00000  -0.00000  -0.00000   0.00000
   D45        0.00000   0.00000  -0.00000   0.00000   0.00000   0.00000
   D46       -3.14159  -0.00000   0.00000  -0.00000  -0.00000  -3.14159
   D47        3.14159   0.00000  -0.00000   0.00000   0.00000   3.14159
   D48        0.00000  -0.00000   0.00000  -0.00000  -0.00000   0.00000
   D49        0.00000  -0.00000  -0.00000  -0.00000  -0.00000  -0.00000
   D50       -3.14159  -0.00000  -0.00000  -0.00000  -0.00000  -3.14159
   D51        3.14159   0.00000  -0.00000   0.00000   0.00000   3.14159
   D52       -0.00000   0.00000  -0.00000   0.00000   0.00000  -0.00000
         Item               Value     Threshold  Converged?
 Maximum Force            0.061065     0.000450     NO 
 RMS     Force            0.011846     0.000300     NO 
 Maximum Displacement     0.515961     0.001800     NO 
 RMS     Displacement     0.140423     0.001200     NO 
 Predicted change in Energy=-8.051176D-03
 GradGradGradGradGradGradGradGradGradGradGradGradGradGradGradGradGradGrad

                          Input orientation:                          
 ---------------------------------------------------------------------
 Center     Atomic      Atomic             Coordinates (Angstroms)
 Number     Number       Type             X           Y           Z
 ---------------------------------------------------------------------
      1          6           0       -0.616458    1.454518    0.224656
      2          6           0        0.729954    1.481264   -0.213902
      3          6           0        1.487185    2.647191   -0.244404
      4          6           0        0.925973    3.845899    0.165617
      5          6           0       -0.386661    3.871777    0.602928
      6          6           0       -1.137288    2.697054    0.629603
      7          6           0       -1.445681    0.130985    0.249277
      8          6           0       -0.826131   -1.064690   -0.179398
      9          6           0       -1.471867   -2.290322   -0.196842
     10          6           0       -2.782070   -2.413179    0.211741
     11          6           0       -3.438890   -1.276139    0.641684
     12          6           0       -2.809044   -0.014556    0.671114
     13          1           0        1.233621    0.597914   -0.545736
     14          1           0        2.511307    2.618833   -0.587131
     15          1           0       -0.831141    4.802531    0.924166
[...]

 **********************************************************************

            Population analysis using the SCF Density.

 **********************************************************************

 Orbital symmetries:
       Occupied  (A) (A) (A) (A) (A) (A) (A) (A) (A) (A) (A) (A)
                 (A) (A) (A) (A) (A) (A) (A) (A) (A) (A) (A) (A)
                 (A) (A) (A) (A) (A) (A) (A) (A) (A) (A) (A) (A)
                 (A) (A) (A) (A) (A) (A) (A) (A) (A) (A) (A) (A)
                 (A) (A) (A) (A) (A) (A) (A) (A) (A) (A) (A) (A)
                 (A) (A) (A) (A) (A) (A) (A) (A) (A) (A) (A) (A)
                 (A)
       Virtual   (A) (A) (A) (A) (A) (A) (A) (A) (A) (A) (A) (A)
                 (A) (A) (A) (A) (A) (A) (A) (A) (A) (A) (A) (A)
                 (A) (A) (A) (A) (A) (A) (A) (A) (A) (A) (A) (A)
                 (A) (A) (A) (A) (A) (A) (A) (A) (A) (A) (A) (A)
                 (A) (A) (A) (A) (A) (A) (A) (A) (A) (A) (A) (A)
                 (A) (A) (A) (A) (A) (A) (A) (A) (A) (A) (A) (A)
                 (A) (A) (A) (A) (A) (A) (A) (A) (A) (A) (A) (A)
                 (A) (A) (A) (A) (A) (A) (A) (A) (A) (A) (A) (A)
                 (A) (A) (A) (A) (A) (A) (A) (A) (A) (A) (A) (A)
                 (A) (A) (A) (A) (A) (A) (A) (A) (A) (A) (A) (A)
                 (A) (A) (A) (A) (A) (A) (A) (A) (A) (A) (A) (A)
                 (A) (A) (A) (A) (A) (A) (A) (A) (A) (A) (A) (A)
                 (A) (A) (A) (A) (A) (A) (A) (A) (A) (A) (A) (A)
                 (A) (A) (A) (A) (A) (A) (A) (A) (A) (A) (A) (A)
                 (A) (A) (A) (A) (A) (A) (A) (A) (A) (A) (A) (A)
                 (A) (A) (A) (A) (A) (A) (A) (A) (A) (A) (A) (A)
                 (A) (A) (A) (A) (A) (A) (A) (A) (A) (A) (A) (A)
                 (A) (A) (A) (A) (A) (A) (A) (A) (A) (A) (A) (A)
                 (A) (A) (A) (A) (A) (A) (A) (A) (A) (A) (A) (A)
                 (A) (A) (A) (A) (A) (A) (A) (A) (A) (A) (A) (A)
                 (A) (A) (A) (A) (A) (A) (A) (A) (A) (A) (A) (A)
                 (A) (A) (A) (A) (A) (A) (A) (A) (A) (A) (A) (A)
                 (A) (A) (A) (A) (A) (A) (A) (A) (A) (A) (A) (A)
                 (A) (A) (A) (A) (A) (A) (A) (A) (A) (A) (A) (A)
                 (A) (A) (A) (A) (A) (A) (A) (A) (A) (A) (A) (A)
                 (A) (A) (A) (A) (A) (A) (A) (A) (A) (A) (A) (A)
                 (A) (A) (A) (A) (A) (A) (A) (A) (A) (A) (A) (A)
                 (A) (A) (A) (A) (A) (A) (A) (A) (A) (A) (A) (A)
                 (A) (A) (A) (A) (A) (A) (A) (A) (A)
 The electronic state is 1-A.
 Alpha  occ. eigenvalues -- -101.57450-101.57317-101.57244-101.56381 -10.27225
 Alpha  occ. eigenvalues --  -10.26958 -10.26554 -10.25405 -10.23183 -10.21824
 Alpha  occ. eigenvalues --  -10.21470 -10.21391 -10.20476 -10.20403 -10.20371
 Alpha  occ. eigenvalues --  -10.20327  -9.48910  -9.48770  -9.48721  -9.47838
 Alpha  occ. eigenvalues --   -7.25397  -7.25241  -7.25205  -7.24391  -7.24329
 Alpha  occ. eigenvalues --   -7.24297  -7.24248  -7.24212  -7.24206  -7.24131
 Alpha  occ. eigenvalues --   -7.23323  -7.23286  -0.94494  -0.91070  -0.90248
 Alpha  occ. eigenvalues --   -0.88209  -0.86092  -0.84001  -0.79273  -0.77974
 Alpha  occ. eigenvalues --   -0.74980  -0.74015  -0.65982  -0.64505  -0.62323
 Alpha  occ. eigenvalues --   -0.60677  -0.54937  -0.53152  -0.52709  -0.49553
 Alpha  occ. eigenvalues --   -0.49199  -0.47653  -0.46243  -0.45693  -0.45430
 Alpha  occ. eigenvalues --   -0.44320  -0.42216  -0.41730  -0.40833  -0.39250
 Alpha  occ. eigenvalues --   -0.38633  -0.38408  -0.36527  -0.35266  -0.34644
 Alpha  occ. eigenvalues --   -0.33571  -0.33162  -0.32700  -0.32359  -0.28762
 Alpha  occ. eigenvalues --   -0.28400  -0.26582  -0.25765
 Alpha virt. eigenvalues --   -0.06393  -0.05327  -0.03954  -0.03109  -0.02708
 Alpha virt. eigenvalues --   -0.00966   0.00189   0.00490   0.00871   0.01423
 Alpha virt. eigenvalues --    0.02473   0.02599   0.03083   0.03924   0.04222
 Alpha virt. eigenvalues --    0.04668   0.05231   0.05618   0.06129   0.06825
 Alpha virt. eigenvalues --    0.07272   0.08124   0.08281   0.08502   0.08918
 Alpha virt. eigenvalues --    0.09126   0.09764   0.10204   0.10421   0.10770
 Alpha virt. eigenvalues --    0.11573   0.11701   0.12124   0.12406   0.12515
 Alpha virt. eigenvalues --    0.12589   0.12985   0.13598   0.14229   0.14624
 Alpha virt. eigenvalues --    0.14689   0.15272   0.15605   0.16270   0.16546
 Alpha virt. eigenvalues --    0.17071   0.17526   0.17710   0.18062   0.18361
 Alpha virt. eigenvalues --    0.19200   0.19454   0.19677   0.19835   0.20065
 Alpha virt. eigenvalues --    0.20648   0.20904   0.21497   0.21935   0.22497
 Alpha virt. eigenvalues --    0.22713   0.23112   0.23291   0.23708   0.24012
 Alpha virt. eigenvalues --    0.24411   0.25207   0.25370   0.25906   0.26223
 Alpha virt. eigenvalues --    0.26838   0.27084   0.27391   0.27876   0.28311
 Alpha virt. eigenvalues --    0.28863   0.29484   0.29654   0.30333   0.30671
 Alpha virt. eigenvalues --    0.30755   0.31603   0.32448   0.33071   0.34052
 Alpha virt. eigenvalues --    0.34706   0.35318   0.41098   0.42008   0.43026
 Alpha virt. eigenvalues --    0.44103   0.44330   0.44883   0.45377   0.45625
 Alpha virt. eigenvalues --    0.45855   0.47187   0.47701   0.48191   0.49007
 Alpha virt. eigenvalues --    0.49824   0.50597   0.51191   0.51953   0.53397
 Alpha virt. eigenvalues --    0.54484   0.55032   0.56496   0.56821   0.57140
 Alpha virt. eigenvalues --    0.57816   0.58187   0.59514   0.60104   0.60772
 Alpha virt. eigenvalues --    0.61226   0.62019   0.62565   0.63077   0.64099
 Alpha virt. eigenvalues --    0.65444   0.66021   0.66775   0.67071   0.68060
 Alpha virt. eigenvalues --    0.68806   0.68980   0.69541   0.70087   0.70874
 Alpha virt. eigenvalues --    0.71113   0.71951   0.73006   0.74665   0.76536
 Alpha virt. eigenvalues --    0.81155   0.82045   0.82355   0.83012   0.83354
 Alpha virt. eigenvalues --    0.83442   0.84196   0.84451   0.84613   0.85116
 Alpha virt. eigenvalues --    0.85152   0.85580   0.85745   0.86037   0.86596
 Alpha virt. eigenvalues --    0.86872   0.88041   0.88499   0.89141   0.90427
 Alpha virt. eigenvalues --    0.91005   0.91794   0.92159   0.93427   0.93685
 Alpha virt. eigenvalues --    0.94269   0.94723   0.95238   0.96294   0.97752
 Alpha virt. eigenvalues --    0.98149   0.99602   1.00460   1.01155   1.01694
 Alpha virt. eigenvalues --    1.03997   1.04224   1.06159   1.08437   1.10023
 Alpha virt. eigenvalues --    1.10945   1.12485   1.14401   1.17778   1.18889
 Alpha virt. eigenvalues --    1.20328   1.21725   1.22761   1.24316   1.26462
 Alpha virt. eigenvalues --    1.28213   1.28565   1.29580   1.30780   1.31762
 Alpha virt. eigenvalues --    1.34788   1.36139   1.40636   1.42983   1.48053
 Alpha virt. eigenvalues --    1.49461   1.51052   1.51568   1.53424   1.55021
 Alpha virt. eigenvalues --    1.55816   1.57813   1.59063   1.59562   1.60248
 Alpha virt. eigenvalues --    1.61371   1.63612   1.65971   1.68255   1.69916
 Alpha virt. eigenvalues --    1.71497   1.71987   1.73879   1.75866   1.79042
 Alpha virt. eigenvalues --    1.80293   1.83269   1.83960   1.88058   1.88127
 Alpha virt. eigenvalues --    1.89962   1.90638   1.92390   1.92847   1.93682
 Alpha virt. eigenvalues --    1.94460   1.95144   1.96434   1.96683   1.98300
 Alpha virt. eigenvalues --    2.03394   2.04271   2.05322   2.05542   2.07171
 Alpha virt. eigenvalues --    2.10753   2.12450   2.17342   2.17832   2.24380
 Alpha virt. eigenvalues --    2.25580   2.26542   2.27274   2.27898   2.29289
 Alpha virt. eigenvalues --    2.30029   2.30561   2.34222   2.35017   2.38563
 Alpha virt. eigenvalues --    2.40578   2.41227   2.42650   2.44621   2.45447
 Alpha virt. eigenvalues --    2.51138   2.52439   2.53609   2.54107   2.55729
 Alpha virt. eigenvalues --    2.59505   2.61708   2.63780   2.64758   2.66343
 Alpha virt. eigenvalues --    2.67114   2.69143   2.69977   2.71573   2.73492
 Alpha virt. eigenvalues --    2.74269   2.74840   2.75938   2.76715   2.76810
 Alpha virt. eigenvalues --    2.79025   2.79922   2.80486   2.83367   2.84195
 Alpha virt. eigenvalues --    2.88449   2.91776   2.92086   2.97333   2.99046
 Alpha virt. eigenvalues --    3.06517   3.06955   3.08351   3.12279   3.13252
 Alpha virt. eigenvalues --    3.16809   3.18578   3.22214   3.25701   3.33370
 Alpha virt. eigenvalues --    3.34124   3.41409   3.44454   3.47888   3.57107
 Alpha virt. eigenvalues --    3.58821   3.66161   3.72317   3.79264   3.81570
 Alpha virt. eigenvalues --    3.95816   3.96888   4.08600   4.12457   4.13483
 Alpha virt. eigenvalues --    4.37261   4.80586   4.83095   9.75328   9.77259
 Alpha virt. eigenvalues --    9.78284   9.81823  23.39787  23.59585  23.82631
 Alpha virt. eigenvalues --   23.88243  23.90453  23.93941  23.95696  24.01940
 Alpha virt. eigenvalues --   24.05622  24.07729  24.10826  24.16149  25.80161
 Alpha virt. eigenvalues --   25.81935  25.82538  25.91041  26.08701  26.11919
 Alpha virt. eigenvalues --   26.16150  26.29289  26.55289  26.58929  26.60843
 Alpha virt. eigenvalues --   26.81884 215.74360 215.76295 215.77656 215.81912
          Condensed to atoms (all electrons):
               1          2          3          4          5          6
     1  C   39.561273  -1.993898  -0.803060  -6.439880  -0.097672  -5.613780
     2  C   -1.993898  29.346308  -3.569644   0.388499  -0.555638 -16.149278
     3  C   -0.803060  -3.569644  20.652706  -1.804128  -8.980718   0.151244
     4  C   -6.439880   0.388499  -1.804128  18.033285  -4.314053   2.266704
     5  C   -0.097672  -0.555638  -8.980718  -4.314053  24.102541  -6.556026
     6  C   -5.613780 -16.149278   0.151244   2.266704  -6.556026  34.256248
     7  C   -2.220123  -1.404065   0.235875  -1.322258   1.843665  -1.219738
     8  C   -7.296487   2.028845   0.169409  -0.064482   0.194475  -1.598253
     9  C    0.633261  -0.446501  -0.125138   0.174748  -0.125346   0.658504
    10  C   -1.678999  -0.484479  -0.094526  -0.094285   0.096736   0.240682
    11  C    7.452813   0.690058   0.047551   0.045168   0.002973  -0.957817
    12  C  -13.763190  -1.762867   0.625467  -0.534566   0.471009   0.963368
    13  H    0.017435   0.297860  -0.029314  -0.021352  -0.020631   0.031728
    14  H   -0.013895  -0.012223   0.245967   0.082824   0.057630  -0.013538
    15  H   -0.010653  -0.020839   0.066412   0.078330   0.241667  -0.011389
    16  H   -0.047745   0.057022  -0.032775  -0.007301  -0.035540   0.326131
    17  H    0.100923   0.095498  -0.007165   0.006415  -0.007253  -0.042118
    18  H    0.015791   0.000531   0.000100   0.000008  -0.000057  -0.001491
    19  Cl  -2.884450  -0.220218  -0.074135  -0.131402   0.339892  -0.012583
    20  Cl   0.170660  -0.010401  -0.003114   0.004288   0.001532   0.038906
    21  Cl  -0.165718   0.337012   0.020431  -1.239088   0.128690   0.271599
    22  Cl  -0.183749   0.027122   0.024618  -0.001181   0.001695  -0.040188
               7          8          9         10         11         12
     1  C   -2.220123  -7.296487   0.633261  -1.678999   7.452813 -13.763190
     2  C   -1.404065   2.028845  -0.446501  -0.484479   0.690058  -1.762867
     3  C    0.235875   0.169409  -0.125138  -0.094526   0.047551   0.625467
     4  C   -1.322258  -0.064482   0.174748  -0.094285   0.045168  -0.534566
     5  C    1.843665   0.194475  -0.125346   0.096736   0.002973   0.471009
     6  C   -1.219738  -1.598253   0.658504   0.240682  -0.957817   0.963368
     7  C   23.919302  -1.960375  -4.809571  -2.302486   1.534987  -5.544700
     8  C   -1.960375  23.615681  -2.801192  -4.953594  -5.180596   3.397580
     9  C   -4.809571  -2.801192  20.208363   0.007884  -4.996760  -2.235692
    10  C   -2.302486  -4.953594   0.007884  25.657341  -1.259133  -8.803048
    11  C    1.534987  -5.180596  -4.996760  -1.259133  35.161232 -23.674969
    12  C   -5.544700   3.397580  -2.235692  -8.803048 -23.674969  54.377547
    13  H    0.031322   0.019847  -0.023414   0.003045   0.003760   0.044588
    14  H    0.009871  -0.000255  -0.000842   0.000166  -0.000795   0.000425
    15  H    0.006809  -0.001430  -0.000573   0.000202   0.000402   0.006950
    16  H    0.034614   0.005572  -0.017319   0.004994  -0.015399   0.075032
    17  H    0.006087   0.250304   0.020792  -0.002746   0.036601  -0.101680
    18  H    0.066690  -0.016071   0.059252   0.092774   0.142744  -0.011838
    19  Cl  -0.098876   0.703796   0.185745   0.785802  -2.102789   1.782232
    20  Cl  -0.049746   0.048496  -0.056621  -0.227264  -0.704890   0.321389
    21  Cl  -0.073538   0.002042   0.008986  -0.003139   0.001849  -0.031040
    22  Cl  -0.325691   0.430456  -1.198827  -0.069499  -0.146728   0.708272
              13         14         15         16         17         18
     1  C    0.017435  -0.013895  -0.010653  -0.047745   0.100923   0.015791
     2  C    0.297860  -0.012223  -0.020839   0.057022   0.095498   0.000531
     3  C   -0.029314   0.245967   0.066412  -0.032775  -0.007165   0.000100
     4  C   -0.021352   0.082824   0.078330  -0.007301   0.006415   0.000008
     5  C   -0.020631   0.057630   0.241667  -0.035540  -0.007253  -0.000057
     6  C    0.031728  -0.013538  -0.011389   0.326131  -0.042118  -0.001491
     7  C    0.031322   0.009871   0.006809   0.034614   0.006087   0.066690
     8  C    0.019847  -0.000255  -0.001430   0.005572   0.250304  -0.016071
     9  C   -0.023414  -0.000842  -0.000573  -0.017319   0.020792   0.059252
    10  C    0.003045   0.000166   0.000202   0.004994  -0.002746   0.092774
    11  C    0.003760  -0.000795   0.000402  -0.015399   0.036601   0.142744
    12  C    0.044588   0.000425   0.006950   0.075032  -0.101680  -0.011838
    13  H    0.523440  -0.007780   0.000067  -0.000250  -0.000566   0.000000
    14  H   -0.007780   0.512647  -0.000308   0.000066   0.000023  -0.000000
    15  H    0.000067  -0.000308   0.512786  -0.007636   0.000002  -0.000000
    16  H   -0.000250   0.000066  -0.007636   0.517232  -0.000008  -0.000001
    17  H   -0.000566   0.000023   0.000002  -0.000008   0.505147  -0.000217
    18  H    0.000000  -0.000000  -0.000000  -0.000001  -0.000217   0.492159
    19  Cl  -0.003291  -0.000082  -0.000971   0.005175  -0.003867  -0.002098
    20  Cl  -0.000100  -0.000001  -0.000005   0.000014   0.000741  -0.003643
    21  Cl  -0.000086  -0.011924  -0.012340  -0.000224  -0.000085   0.000000
    22  Cl   0.000275  -0.000005  -0.000002  -0.000048  -0.011805  -0.009030
              19         20         21         22
     1  C   -2.884450   0.170660  -0.165718  -0.183749
     2  C   -0.220218  -0.010401   0.337012   0.027122
     3  C   -0.074135  -0.003114   0.020431   0.024618
     4  C   -0.131402   0.004288  -1.239088  -0.001181
     5  C    0.339892   0.001532   0.128690   0.001695
     6  C   -0.012583   0.038906   0.271599  -0.040188
     7  C   -0.098876  -0.049746  -0.073538  -0.325691
     8  C    0.703796   0.048496   0.002042   0.430456
     9  C    0.185745  -0.056621   0.008986  -1.198827
    10  C    0.785802  -0.227264  -0.003139  -0.069499
    11  C   -2.102789  -0.704890   0.001849  -0.146728
    12  C    1.782232   0.321389  -0.031040   0.708272
    13  H   -0.003291  -0.000100  -0.000086   0.000275
    14  H   -0.000082  -0.000001  -0.011924  -0.000005
    15  H   -0.000971  -0.000005  -0.012340  -0.000002
    16  H    0.005175   0.000014  -0.000224  -0.000048
    17  H   -0.003867   0.000741  -0.000085  -0.011805
    18  H   -0.002098  -0.003643   0.000000  -0.009030
    19  Cl  18.330095  -0.219775   0.000536   0.003438
    20  Cl  -0.219775  17.277439   0.000066  -0.025228
    21  Cl   0.000536   0.000066  17.383777   0.000050
    22  Cl   0.003438  -0.025228   0.000050  17.402088
 Mulliken charges:
               1
     1  C    1.261143
     2  C   -0.638703
     3  C   -0.716065
     4  C    0.893705
     5  C   -0.789568
     6  C   -0.988913
     7  C   -0.358055
     8  C   -0.993768
     9  C    0.880261
    10  C   -0.916430
    11  C   -0.080264
    12  C   -0.310269
    13  H    0.133417
    14  H    0.152031
    15  H    0.152519
    16  H    0.138393
    17  H    0.154975
    18  H    0.174398
    19  Cl   0.617824
    20  Cl   0.437258
    21  Cl   0.382143
    22  Cl   0.413968
 Sum of Mulliken charges =  -0.00000
 Mulliken charges with hydrogens summed into heavy atoms:
               1
     1  C    1.261143
     2  C   -0.505286
     3  C   -0.564034
     4  C    0.893705
     5  C   -0.637049
     6  C   -0.850520
     7  C   -0.358055
     8  C   -0.838793
     9  C    0.880261
    10  C   -0.742032
    11  C   -0.080264
    12  C   -0.310269
    19  Cl   0.617824
    20  Cl   0.437258
    21  Cl   0.382143
    22  Cl   0.413968
 Electronic spatial extent (au):  <R**2>=           6919.1930
 Charge=              0.0000 electrons
 Dipole moment (field-independent basis, Debye):
    X=             -0.2693    Y=              0.8223    Z=             -0.1023  Tot=              0.8713
 Quadrupole moment (field-independent basis, Debye-Ang):
   XX=           -126.8639   YY=           -123.0779   ZZ=           -117.3834
   XY=             -0.0909   XZ=             -0.0140   YZ=              4.1265
 Traceless Quadrupole moment (field-independent basis, Debye-Ang):
   XX=             -4.4221   YY=             -0.6362   ZZ=              5.0583
   XY=             -0.0909   XZ=             -0.0140   YZ=              4.1265
 Octapole moment (field-independent basis, Debye-Ang**2):
  XXX=            -68.0227  YYY=            -11.5104  ZZZ=              0.5420  XYY=              8.1023
  XXY=             -6.6677  XXZ=              0.2680  XZZ=             10.7460  YZZ=             -3.0532
  YYZ=              1.8966  XYZ=             10.3098
 Hexadecapole moment (field-independent basis, Debye-Ang**3):
 XXXX=          -6929.7119 YYYY=          -2028.0575 ZZZZ=           -320.6793 XXXY=             -5.8688
 XXXZ=              1.1776 YYYX=             11.3567 YYYZ=             -6.4908 ZZZX=             -1.3539
 ZZZY=             14.7438 XXYY=          -1495.0757 XXZZ=          -1172.2232 YYZZ=           -399.6203
 XXYZ=             32.3009 YYXZ=              3.5312 ZZXY=              4.3099
 N-N= 1.411185953005D+03 E-N=-8.266600135457D+03  KE= 2.295552194049D+03
 1\1\GINC-LOCALHOST\FOpt\RB3LYP\6-311+G(d,p)\C12H6Cl4\GOUR\15-Mar-2022\
 0\\# opt b3lyp/6-311+g(d,p) scf=xqc\\Title Card Required\\0,1\C,-0.654
 0293978,1.422666684,0.1910798188\C,0.2922530264,1.6458756502,-0.814936
 2026\C,1.0410314367,2.8197647893,-0.8489831755\C,0.8448076797,3.775823
 1938,0.1409478209\C,-0.084987144,3.5759961019,1.1573135487\C,-0.831736
 1322,2.4027364702,1.1744785773\C,-1.4078119298,0.1370751051,0.23168184
 44\C,-0.6818773384,-1.0535345219,0.3522775957\C,-1.3362972475,-2.27691
 25876,0.3963524919\C,-2.7196143053,-2.354630325,0.3245613184\C,-3.4514
 700913,-1.1774040468,0.1978997267\C,-2.8099356116,0.0667075887,0.14728
 44531\H,0.4383245045,0.9019539591,-1.5898231039\H,1.7649984503,2.98993
 40867,-1.6354326088\H,-0.2210799475,4.3269344767,1.9248973811\H,-1.552
 583225,2.2470535438,1.967930106\H,0.3964418531,-1.0124020622,0.4298025
 824\H,-3.2285161592,-3.3074601371,0.363285883\Cl,-3.7529502105,1.52093
 22715,-0.0717197909\Cl,-5.1897964681,-1.3081030725,0.092447093\Cl,1.78
 70152394,5.2586061094,0.1110694731\Cl,-0.4023285818,-3.7528775872,0.55
 54942871\\Version=EM64L-G16RevB.01\State=1-A\HF=-2301.9013264\RMSD=8.4
 19e-09\RMSF=7.836e-06\Dipole=0.21645,-0.2602539,0.0541667\Quadrupole=-
 1.2310377,-2.2988574,3.5298951,-1.4289954,-2.6359542,1.8396756\PG=C01 
 [X(C12H6Cl4)]\\@


 IT TAKES GREATER CHARACTER TO CARRY OFF GOOD FORTUNE THAN BAD.
                     FRENCH PROVERB.
 Job cpu time:       0 days  6 hours 40 minutes 14.9 seconds.
 Elapsed time:       0 days  1 hours 40 minutes 22.2 seconds.
 File lengths (MBytes):  RWF=    117 Int=      0 D2E=      0 Chk=     17 Scr=      1
 Normal termination of Gaussian 16 at Tue Mar 15 22:01:39 2022.
