 Entering Gaussian System, Link 0=g16
 Input=2,3-Dichlorobiphenyl.gjf
 Output=2,3-Dichlorobiphenyl.log
 Initial command:
 /usr/local/g16/l1.exe "/scratch/pkc/Gau-2750.inp" -scrdir="/scratch/pkc/"
 Entering Link 1 = /usr/local/g16/l1.exe PID=      2751.
  
 Copyright (c) 1988-2017, Gaussian, Inc.  All Rights Reserved.
  
 This is part of the Gaussian(R) 16 program.  It is based on
 the Gaussian(R) 09 system (copyright 2009, Gaussian, Inc.),
 the Gaussian(R) 03 system (copyright 2003, Gaussian, Inc.),
 the Gaussian(R) 98 system (copyright 1998, Gaussian, Inc.),
 the Gaussian(R) 94 system (copyright 1995, Gaussian, Inc.),
 the Gaussian 92(TM) system (copyright 1992, Gaussian, Inc.),
 the Gaussian 90(TM) system (copyright 1990, Gaussian, Inc.),
 the Gaussian 88(TM) system (copyright 1988, Gaussian, Inc.),
 the Gaussian 86(TM) system (copyright 1986, Carnegie Mellon
 University), and the Gaussian 82(TM) system (copyright 1983,
 Carnegie Mellon University). Gaussian is a federally registered
 trademark of Gaussian, Inc.
  
 This software contains proprietary and confidential information,
 including trade secrets, belonging to Gaussian, Inc.
  
 This software is provided under written license and may be
 used, copied, transmitted, or stored only in accord with that
 written license.
  
 The following legend is applicable only to US Government
 contracts under FAR:
  
                    RESTRICTED RIGHTS LEGEND
  
 Use, reproduction and disclosure by the US Government is
 subject to restrictions as set forth in subparagraphs (a)
 and (c) of the Commercial Computer Software - Restricted
 Rights clause in FAR 52.227-19.
  
 Gaussian, Inc.
 340 Quinnipiac St., Bldg. 40, Wallingford CT 06492
  
  
 ---------------------------------------------------------------
 Warning -- This program may not be used in any manner that
 competes with the business of Gaussian, Inc. or will provide
 assistance to any competitor of Gaussian, Inc.  The licensee
 of this program is prohibited from giving any competitor of
 Gaussian, Inc. access to this program.  By using this program,
 the user acknowledges that Gaussian, Inc. is engaged in the
 business of creating and licensing software in the field of
 computational chemistry and represents and warrants to the
 licensee that it is not a competitor of Gaussian, Inc. and that
 it will not use this program in any manner prohibited above.
 ---------------------------------------------------------------
  

 Cite this work as:
 Gaussian 16, Revision B.01,
 M. J. Frisch, G. W. Trucks, H. B. Schlegel, G. E. Scuseria, 
 M. A. Robb, J. R. Cheeseman, G. Scalmani, V. Barone, 
 G. A. Petersson, H. Nakatsuji, X. Li, M. Caricato, A. V. Marenich, 
 J. Bloino, B. G. Janesko, R. Gomperts, B. Mennucci, H. P. Hratchian, 
 J. V. Ortiz, A. F. Izmaylov, J. L. Sonnenberg, D. Williams-Young, 
 F. Ding, F. Lipparini, F. Egidi, J. Goings, B. Peng, A. Petrone, 
 T. Henderson, D. Ranasinghe, V. G. Zakrzewski, J. Gao, N. Rega, 
 G. Zheng, W. Liang, M. Hada, M. Ehara, K. Toyota, R. Fukuda, 
 J. Hasegawa, M. Ishida, T. Nakajima, Y. Honda, O. Kitao, H. Nakai, 
 T. Vreven, K. Throssell, J. A. Montgomery, Jr., J. E. Peralta, 
 F. Ogliaro, M. J. Bearpark, J. J. Heyd, E. N. Brothers, K. N. Kudin, 
 V. N. Staroverov, T. A. Keith, R. Kobayashi, J. Normand, 
 K. Raghavachari, A. P. Rendell, J. C. Burant, S. S. Iyengar, 
 J. Tomasi, M. Cossi, J. M. Millam, M. Klene, C. Adamo, R. Cammi, 
 J. W. Ochterski, R. L. Martin, K. Morokuma, O. Farkas, 
 J. B. Foresman, and D. J. Fox, Gaussian, Inc., Wallingford CT, 2016.
 
 ******************************************
 Gaussian 16:  EM64L-G16RevB.01 20-Dec-2017
                14-Mar-2022 
 ******************************************
 %mem=10GB
 %nprocshared=4
 Will use up to    4 processors via shared memory.
 --------------------------------
 # opt b3lyp/6-311+g(d,p) scf=xqc
 --------------------------------
 1/18=20,19=15,26=3,38=1/1,3;
 2/9=110,12=2,17=6,18=5,40=1/2;
 3/5=4,6=6,7=111,11=2,25=1,30=1,71=1,74=-5/1,2,3;
 4//1;
 5/5=2,8=3,13=1,38=5/2,8;
 6/7=2,8=2,9=2,10=2,28=1/1;
 7//1,2,3,16;
 1/18=20,19=15,26=3/3(2);
 2/9=110/2;
 99//99;
 2/9=110/2;
 3/5=4,6=6,7=111,11=2,25=1,30=1,71=1,74=-5/1,2,3;
 4/5=5,16=3,69=1/1;
 5/5=2,8=3,13=1,38=5/2,8;
 7//1,2,3,16;
 1/18=20,19=15,26=3/3(-5);
 2/9=110/2;
 6/7=2,8=2,9=2,10=2,19=2,28=1/1;
 99/9=1/99;
 -------------------
 Title Card Required
 -------------------
 Symbolic Z-matrix:
 Charge =  0 Multiplicity = 1
 C                    -1.55578  -0.80177  -0.00285 
 C                    -0.2234   -0.77188  -0.4362 
 C                     0.48449   0.43757  -0.44227 
 C                    -0.13999   1.61713  -0.015 
 C                    -1.47238   1.58725   0.41835 
 C                    -2.18027   0.37779   0.42442 
 C                    -2.33369  -2.13084   0.00382 
 C                    -1.7092   -3.3104   -0.42345 
 C                    -2.41709  -4.51985  -0.41738 
 C                    -3.74947  -4.54974   0.01597 
 C                    -4.37396  -3.37018   0.44325 
 C                    -3.66607  -2.16072   0.43717 
 H                     0.25341  -1.67251  -0.76243 
 H                     1.5018    0.46038  -0.77314 
 H                     0.4005    2.54057  -0.01963 
 H                    -0.6919   -3.28758  -0.75432 
 H                    -1.94028  -5.42048  -0.74361 
 H                    -4.28996  -5.47318   0.02061 
 H                    -5.39126  -3.393     0.77412 
 H                    -4.14287  -1.2601    0.76341 
 Cl                   -3.85359   0.34026   0.96866 
 Cl                   -2.25666   3.06865   0.95496 
 

 GradGradGradGradGradGradGradGradGradGradGradGradGradGradGradGradGradGrad
 Berny optimization.
 Initialization pass.
                           ----------------------------
                           !    Initial Parameters    !
                           ! (Angstroms and Degrees)  !
 --------------------------                            --------------------------
 ! Name  Definition              Value          Derivative Info.                !
 --------------------------------------------------------------------------------
 ! R1    R(1,2)                  1.4014         estimate D2E/DX2                !
 ! R2    R(1,6)                  1.4014         estimate D2E/DX2                !
 ! R3    R(1,7)                  1.54           estimate D2E/DX2                !
 ! R4    R(2,3)                  1.4014         estimate D2E/DX2                !
 ! R5    R(2,13)                 1.07           estimate D2E/DX2                !
 ! R6    R(3,4)                  1.4014         estimate D2E/DX2                !
 ! R7    R(3,14)                 1.07           estimate D2E/DX2                !
 ! R8    R(4,5)                  1.4014         estimate D2E/DX2                !
 ! R9    R(4,15)                 1.07           estimate D2E/DX2                !
 ! R10   R(5,6)                  1.4014         estimate D2E/DX2                !
 ! R11   R(5,22)                 1.76           estimate D2E/DX2                !
 ! R12   R(6,21)                 1.76           estimate D2E/DX2                !
 ! R13   R(7,8)                  1.4014         estimate D2E/DX2                !
 ! R14   R(7,12)                 1.4014         estimate D2E/DX2                !
 ! R15   R(8,9)                  1.4014         estimate D2E/DX2                !
 ! R16   R(8,16)                 1.07           estimate D2E/DX2                !
 ! R17   R(9,10)                 1.4014         estimate D2E/DX2                !
 ! R18   R(9,17)                 1.07           estimate D2E/DX2                !
 ! R19   R(10,11)                1.4014         estimate D2E/DX2                !
 ! R20   R(10,18)                1.07           estimate D2E/DX2                !
 ! R21   R(11,12)                1.4014         estimate D2E/DX2                !
 ! R22   R(11,19)                1.07           estimate D2E/DX2                !
 ! R23   R(12,20)                1.07           estimate D2E/DX2                !
 ! A1    A(2,1,6)              120.0            estimate D2E/DX2                !
 ! A2    A(2,1,7)              120.0            estimate D2E/DX2                !
 ! A3    A(6,1,7)              120.0            estimate D2E/DX2                !
 ! A4    A(1,2,3)              120.0            estimate D2E/DX2                !
 ! A5    A(1,2,13)             120.0            estimate D2E/DX2                !
 ! A6    A(3,2,13)             120.0            estimate D2E/DX2                !
 ! A7    A(2,3,4)              120.0            estimate D2E/DX2                !
 ! A8    A(2,3,14)             120.0            estimate D2E/DX2                !
 ! A9    A(4,3,14)             120.0            estimate D2E/DX2                !
 ! A10   A(3,4,5)              120.0            estimate D2E/DX2                !
 ! A11   A(3,4,15)             120.0            estimate D2E/DX2                !
 ! A12   A(5,4,15)             120.0            estimate D2E/DX2                !
 ! A13   A(4,5,6)              120.0            estimate D2E/DX2                !
 ! A14   A(4,5,22)             120.0            estimate D2E/DX2                !
 ! A15   A(6,5,22)             120.0            estimate D2E/DX2                !
 ! A16   A(1,6,5)              120.0            estimate D2E/DX2                !
 ! A17   A(1,6,21)             120.0            estimate D2E/DX2                !
 ! A18   A(5,6,21)             120.0            estimate D2E/DX2                !
 ! A19   A(1,7,8)              120.0            estimate D2E/DX2                !
 ! A20   A(1,7,12)             120.0            estimate D2E/DX2                !
 ! A21   A(8,7,12)             120.0            estimate D2E/DX2                !
 ! A22   A(7,8,9)              120.0            estimate D2E/DX2                !
 ! A23   A(7,8,16)             120.0            estimate D2E/DX2                !
 ! A24   A(9,8,16)             120.0            estimate D2E/DX2                !
 ! A25   A(8,9,10)             120.0            estimate D2E/DX2                !
 ! A26   A(8,9,17)             120.0            estimate D2E/DX2                !
 ! A27   A(10,9,17)            120.0            estimate D2E/DX2                !
 ! A28   A(9,10,11)            120.0            estimate D2E/DX2                !
 ! A29   A(9,10,18)            120.0            estimate D2E/DX2                !
 ! A30   A(11,10,18)           120.0            estimate D2E/DX2                !
 ! A31   A(10,11,12)           120.0            estimate D2E/DX2                !
 ! A32   A(10,11,19)           120.0            estimate D2E/DX2                !
 ! A33   A(12,11,19)           120.0            estimate D2E/DX2                !
 ! A34   A(7,12,11)            120.0            estimate D2E/DX2                !
 ! A35   A(7,12,20)            120.0            estimate D2E/DX2                !
 ! A36   A(11,12,20)           120.0            estimate D2E/DX2                !
 ! D1    D(6,1,2,3)              0.0001         estimate D2E/DX2                !
 ! D2    D(6,1,2,13)           180.0            estimate D2E/DX2                !
 ! D3    D(7,1,2,3)           -180.0            estimate D2E/DX2                !
 ! D4    D(7,1,2,13)            -0.0001         estimate D2E/DX2                !
 ! D5    D(2,1,6,5)             -0.0001         estimate D2E/DX2                !
 ! D6    D(2,1,6,21)           180.0            estimate D2E/DX2                !
 ! D7    D(7,1,6,5)            180.0            estimate D2E/DX2                !
 ! D8    D(7,1,6,21)             0.0            estimate D2E/DX2                !
 ! D9    D(2,1,7,8)             -0.0001         estimate D2E/DX2                !
 ! D10   D(2,1,7,12)           179.9998         estimate D2E/DX2                !
 ! D11   D(6,1,7,8)            179.9999         estimate D2E/DX2                !
 ! D12   D(6,1,7,12)            -0.0002         estimate D2E/DX2                !
 ! D13   D(1,2,3,4)              0.0            estimate D2E/DX2                !
 ! D14   D(1,2,3,14)           180.0            estimate D2E/DX2                !
 ! D15   D(13,2,3,4)          -179.9999         estimate D2E/DX2                !
 ! D16   D(13,2,3,14)            0.0001         estimate D2E/DX2                !
 ! D17   D(2,3,4,5)             -0.0001         estimate D2E/DX2                !
 ! D18   D(2,3,4,15)           180.0            estimate D2E/DX2                !
 ! D19   D(14,3,4,5)           179.9999         estimate D2E/DX2                !
 ! D20   D(14,3,4,15)            0.0            estimate D2E/DX2                !
 ! D21   D(3,4,5,6)              0.0001         estimate D2E/DX2                !
 ! D22   D(3,4,5,22)          -179.9999         estimate D2E/DX2                !
 ! D23   D(15,4,5,6)          -180.0            estimate D2E/DX2                !
 ! D24   D(15,4,5,22)            0.0            estimate D2E/DX2                !
 ! D25   D(4,5,6,1)              0.0            estimate D2E/DX2                !
 ! D26   D(4,5,6,21)           179.9999         estimate D2E/DX2                !
 ! D27   D(22,5,6,1)           180.0            estimate D2E/DX2                !
 ! D28   D(22,5,6,21)           -0.0001         estimate D2E/DX2                !
 ! D29   D(1,7,8,9)            179.9999         estimate D2E/DX2                !
 ! D30   D(1,7,8,16)             0.0001         estimate D2E/DX2                !
 ! D31   D(12,7,8,9)             0.0001         estimate D2E/DX2                !
 ! D32   D(12,7,8,16)         -179.9998         estimate D2E/DX2                !
 ! D33   D(1,7,12,11)         -179.9999         estimate D2E/DX2                !
 ! D34   D(1,7,12,20)            0.0            estimate D2E/DX2                !
 ! D35   D(8,7,12,11)           -0.0001         estimate D2E/DX2                !
 ! D36   D(8,7,12,20)          179.9999         estimate D2E/DX2                !
 ! D37   D(7,8,9,10)             0.0            estimate D2E/DX2                !
 ! D38   D(7,8,9,17)           180.0            estimate D2E/DX2                !
 ! D39   D(16,8,9,10)          179.9998         estimate D2E/DX2                !
 ! D40   D(16,8,9,17)           -0.0002         estimate D2E/DX2                !
 ! D41   D(8,9,10,11)            0.0            estimate D2E/DX2                !
 ! D42   D(8,9,10,18)         -179.9999         estimate D2E/DX2                !
 ! D43   D(17,9,10,11)         180.0            estimate D2E/DX2                !
 ! D44   D(17,9,10,18)           0.0001         estimate D2E/DX2                !
 ! D45   D(9,10,11,12)           0.0            estimate D2E/DX2                !
 ! D46   D(9,10,11,19)        -179.9998         estimate D2E/DX2                !
 ! D47   D(18,10,11,12)        179.9999         estimate D2E/DX2                !
 ! D48   D(18,10,11,19)          0.0001         estimate D2E/DX2                !
 ! D49   D(10,11,12,7)           0.0            estimate D2E/DX2                !
 ! D50   D(10,11,12,20)       -179.9999         estimate D2E/DX2                !
 ! D51   D(19,11,12,7)         179.9999         estimate D2E/DX2                !
 ! D52   D(19,11,12,20)         -0.0001         estimate D2E/DX2                !
 --------------------------------------------------------------------------------
 Trust Radius=3.00D-01 FncErr=1.00D-07 GrdErr=1.00D-06 EigMax=2.50D+02 EigMin=1.00D-04
 Number of steps in this run=    121 maximum allowed number of steps=    132.
 GradGradGradGradGradGradGradGradGradGradGradGradGradGradGradGradGradGrad

                          Input orientation:                          
 ---------------------------------------------------------------------
 Center     Atomic      Atomic             Coordinates (Angstroms)
 Number     Number       Type             X           Y           Z
 ---------------------------------------------------------------------
      1          6           0       -1.555781   -0.801771   -0.002851
      2          6           0       -0.223400   -0.771885   -0.436198
      3          6           0        0.484494    0.437566   -0.442270
      4          6           0       -0.139993    1.617131   -0.014995
      5          6           0       -1.472375    1.587246    0.418350
      6          6           0       -2.180269    0.377795    0.424422
      7          6           0       -2.333686   -2.130838    0.003823
      8          6           0       -1.709198   -3.310403   -0.423452
      9          6           0       -2.417091   -4.519854   -0.417378
     10          6           0       -3.749471   -4.549741    0.015972
     11          6           0       -4.373958   -3.370176    0.443247
     12          6           0       -3.666065   -2.160724    0.437173
     13          1           0        0.253411   -1.672509   -0.762430
     14          1           0        1.501797    0.460385   -0.773139
     15          1           0        0.400499    2.540574   -0.019631
     16          1           0       -0.691896   -3.287584   -0.754322
     17          1           0       -1.940281   -5.420478   -0.743612
     18          1           0       -4.289963   -5.473184    0.020611
     19          1           0       -5.391259   -3.392995    0.774122
     20          1           0       -4.142875   -1.260101    0.763409
     21         17           0       -3.853589    0.340262    0.968656
     22         17           0       -2.256662    3.068647    0.954955
 ---------------------------------------------------------------------
                    Distance matrix (angstroms):
                    1          2          3          4          5
     1  C    0.000000
     2  C    1.401400   0.000000
     3  C    2.427296   1.401400   0.000000
     4  C    2.802800   2.427296   1.401400   0.000000
     5  C    2.427296   2.802800   2.427296   1.401400   0.000000
     6  C    1.401400   2.427296   2.802800   2.427296   1.401400
     7  C    1.540000   2.548270   3.838989   4.342800   3.838989
     8  C    2.548270   2.941400   4.342800   5.187469   4.975106
     9  C    3.838989   4.342800   5.744200   6.558176   6.235992
    10  C    4.342800   5.187469   6.558176   7.145600   6.558176
    11  C    3.838989   4.975106   6.235992   6.558176   5.744200
    12  C    2.548270   3.813607   4.975106   5.187469   4.342800
    13  H    2.146700   1.070000   2.146700   3.396345   3.872800
    14  H    3.396345   2.146700   1.070000   2.146700   3.396345
    15  H    3.872800   3.396345   2.146700   1.070000   2.146700
    16  H    2.736837   2.578650   3.918930   4.990735   5.074276
    17  H    4.693509   4.965039   6.347206   7.300676   7.118798
    18  H    5.412800   6.232802   7.612271   8.215600   7.612271
    19  H    4.693509   5.919617   7.118798   7.300676   6.347206
    20  H    2.736837   4.127917   5.074276   4.990735   3.918930
    21  Cl   2.743718   4.048303   4.562800   4.048303   2.743718
    22  Cl   4.048303   4.562800   4.048303   2.743718   1.760000
                    6          7          8          9         10
     6  C    0.000000
     7  C    2.548270   0.000000
     8  C    3.813607   1.401400   0.000000
     9  C    4.975106   2.427296   1.401400   0.000000
    10  C    5.187469   2.802800   2.427296   1.401400   0.000000
    11  C    4.342800   2.427296   2.802800   2.427296   1.401400
    12  C    2.941400   1.401400   2.427296   2.802800   2.427296
    13  H    3.396345   2.736837   2.578650   3.918930   4.990735
    14  H    3.872800   4.693509   4.965039   6.347206   7.300676
    15  H    3.396345   5.412800   6.232802   7.612271   8.215600
    16  H    4.127917   2.146700   1.070000   2.146700   3.396345
    17  H    5.919617   3.396345   2.146700   1.070000   2.146700
    18  H    6.232802   3.872800   3.396345   2.146700   1.070000
    19  H    4.965039   3.396345   3.872800   3.396345   2.146700
    20  H    2.578650   2.146700   3.396345   3.872800   3.396345
    21  Cl   1.760000   3.057342   4.456874   5.254079   4.983028
    22  Cl   2.743718   5.286324   6.549198   7.713260   7.819846
                   11         12         13         14         15
    11  C    0.000000
    12  C    1.401400   0.000000
    13  H    5.074276   4.127917   0.000000
    14  H    7.118798   5.919617   2.471400   0.000000
    15  H    7.612271   6.232802   4.280590   2.471400   0.000000
    16  H    3.872800   3.396345   1.871400   4.342800   5.974992
    17  H    3.396345   3.872800   4.342800   6.814200   8.329571
    18  H    2.146700   3.396345   5.974992   8.329571   9.285600
    19  H    1.070000   2.146700   6.097816   8.047159   8.329571
    20  H    2.146700   1.070000   4.671787   6.097816   5.974992
    21  Cl   3.783409   2.563702   4.890332   5.632800   4.890332
    22  Cl   6.797295   5.440665   5.632800   4.890332   2.879094
                   16         17         18         19         20
    16  H    0.000000
    17  H    2.471400   0.000000
    18  H    4.280590   2.471400   0.000000
    19  H    4.942800   4.280590   2.471400   0.000000
    20  H    4.280590   4.942800   4.280590   2.471400   0.000000
    21  Cl   5.111382   6.307038   5.906383   4.042212   1.639199
    22  Cl   6.765486   8.663168   8.830073   7.184095   4.725732
                   21         22
    21  Cl   0.000000
    22  Cl   3.161400   0.000000
 Stoichiometry    C12H8Cl2
 Framework group  C1[X(C12H8Cl2)]
 Deg. of freedom    60
 Full point group                 C1      NOp   1
 Largest Abelian subgroup         C1      NOp   1
 Largest concise Abelian subgroup C1      NOp   1
                         Standard orientation:                         
 ---------------------------------------------------------------------
 Center     Atomic      Atomic             Coordinates (Angstroms)
 Number     Number       Type             X           Y           Z
 ---------------------------------------------------------------------
      1          6           0        0.074953    0.791823   -0.000000
      2          6           0       -0.239143    2.157570   -0.000000
      3          6           0       -1.578963    2.568428    0.000001
      4          6           0       -2.604687    1.613539    0.000003
      5          6           0       -2.290590    0.247792    0.000001
      6          6           0       -0.950770   -0.163066   -0.000001
      7          6           0        1.547283    0.340331   -0.000001
      8          6           0        2.573007    1.295220   -0.000003
      9          6           0        3.912827    0.884362   -0.000002
     10          6           0        4.226923   -0.481385    0.000001
     11          6           0        3.201200   -1.436274    0.000003
     12          6           0        1.861380   -1.025416    0.000003
     13          1           0        0.544019    2.886649    0.000000
     14          1           0       -1.818783    3.611206    0.000002
     15          1           0       -3.627669    1.927238    0.000005
     16          1           0        2.333187    2.337998   -0.000003
     17          1           0        4.695989    1.613441   -0.000004
     18          1           0        5.249906   -0.795084    0.000003
     19          1           0        3.441020   -2.479053    0.000008
     20          1           0        1.078217   -1.754495    0.000006
     21         17           0       -0.556300   -1.878290   -0.000002
     22         17           0       -3.578783   -0.951441   -0.000001
 ---------------------------------------------------------------------
 Rotational constants (GHZ):           1.1394690           0.3609595           0.2741231
 Standard basis: 6-311+G(d,p) (5D, 7F)
 There are   386 symmetry adapted cartesian basis functions of A   symmetry.
 There are   372 symmetry adapted basis functions of A   symmetry.
   372 basis functions,   602 primitive gaussians,   386 cartesian basis functions
    57 alpha electrons       57 beta electrons
       nuclear repulsion energy      1002.6675964996 Hartrees.
 NAtoms=   22 NActive=   22 NUniq=   22 SFac= 1.00D+00 NAtFMM=   60 NAOKFM=F Big=F
 Integral buffers will be    131072 words long.
 Raffenetti 2 integral format.
 Two-electron integral symmetry is turned on.
 One-electron integrals computed using PRISM.
 NBasis=   372 RedAO= T EigKep=  1.16D-06  NBF=   372
 NBsUse=   368 1.00D-06 EigRej=  6.28D-07 NBFU=   368
 ExpMin= 4.38D-02 ExpMax= 1.06D+05 ExpMxC= 3.62D+03 IAcc=3 IRadAn=         5 AccDes= 0.00D+00
 Harris functional with IExCor=  402 and IRadAn=       5 diagonalized for initial guess.
 HarFok:  IExCor=  402 AccDes= 0.00D+00 IRadAn=         5 IDoV= 1 UseB2=F ITyADJ=14
 ICtDFT=  3500011 ScaDFX=  1.000000  1.000000  1.000000  1.000000
 FoFCou: FMM=F IPFlag=           0 FMFlag=      100000 FMFlg1=           0
         NFxFlg=           0 DoJE=T BraDBF=F KetDBF=T FulRan=T
         wScrn=  0.000000 ICntrl=       500 IOpCl=  0 I1Cent=   200000004 NGrid=           0
         NMat0=    1 NMatS0=      1 NMatT0=    0 NMatD0=    1 NMtDS0=    0 NMtDT0=    0
 Petite list used in FoFCou.
 Requested convergence on RMS density matrix=1.00D-08 within  32 cycles.
 Requested convergence on MAX density matrix=1.00D-06.
 Requested convergence on             energy=1.00D-06.
 No special actions if energy rises.
 SCF Done:  E(RB3LYP) =  -1382.59617419     A.U. after   16 cycles
            NFock= 16  Conv=0.52D-08     -V/T= 2.0029
 QCSCF skips out because SCF is already converged.

 **********************************************************************

            Population analysis using the SCF Density.

 **********************************************************************

 Orbital symmetries:
       Occupied  (A) (A) (A) (A) (A) (A) (A) (A) (A) (A) (A) (A)
                 (A) (A) (A) (A) (A) (A) (A) (A) (A) (A) (A) (A)
                 (A) (A) (A) (A) (A) (A) (A) (A) (A) (A) (A) (A)
                 (A) (A) (A) (A) (A) (A) (A) (A) (A) (A) (A) (A)
                 (A) (A) (A) (A) (A) (A) (A) (A) (A)
       Virtual   (A) (A) (A) (A) (A) (A) (A) (A) (A) (A) (A) (A)
                 (A) (A) (A) (A) (A) (A) (A) (A) (A) (A) (A) (A)
                 (A) (A) (A) (A) (A) (A) (A) (A) (A) (A) (A) (A)
                 (A) (A) (A) (A) (A) (A) (A) (A) (A) (A) (A) (A)
                 (A) (A) (A) (A) (A) (A) (A) (A) (A) (A) (A) (A)
                 (A) (A) (A) (A) (A) (A) (A) (A) (A) (A) (A) (A)
                 (A) (A) (A) (A) (A) (A) (A) (A) (A) (A) (A) (A)
                 (A) (A) (A) (A) (A) (A) (A) (A) (A) (A) (A) (A)
                 (A) (A) (A) (A) (A) (A) (A) (A) (A) (A) (A) (A)
                 (A) (A) (A) (A) (A) (A) (A) (A) (A) (A) (A) (A)
                 (A) (A) (A) (A) (A) (A) (A) (A) (A) (A) (A) (A)
                 (A) (A) (A) (A) (A) (A) (A) (A) (A) (A) (A) (A)
                 (A) (A) (A) (A) (A) (A) (A) (A) (A) (A) (A) (A)
                 (A) (A) (A) (A) (A) (A) (A) (A) (A) (A) (A) (A)
                 (A) (A) (A) (A) (A) (A) (A) (A) (A) (A) (A) (A)
                 (A) (A) (A) (A) (A) (A) (A) (A) (A) (A) (A) (A)
                 (A) (A) (A) (A) (A) (A) (A) (A) (A) (A) (A) (A)
                 (A) (A) (A) (A) (A) (A) (A) (A) (A) (A) (A) (A)
                 (A) (A) (A) (A) (A) (A) (A) (A) (A) (A) (A) (A)
                 (A) (A) (A) (A) (A) (A) (A) (A) (A) (A) (A) (A)
                 (A) (A) (A) (A) (A) (A) (A) (A) (A) (A) (A) (A)
                 (A) (A) (A) (A) (A) (A) (A) (A) (A) (A) (A) (A)
                 (A) (A) (A) (A) (A) (A) (A) (A) (A) (A) (A) (A)
                 (A) (A) (A) (A) (A) (A) (A) (A) (A) (A) (A) (A)
                 (A) (A) (A) (A) (A) (A) (A) (A) (A) (A) (A) (A)
                 (A) (A) (A) (A) (A) (A) (A) (A) (A) (A) (A)
 The electronic state is 1-A.
 Alpha  occ. eigenvalues -- -101.56622-101.56536 -10.26263 -10.26181 -10.22055
 Alpha  occ. eigenvalues --  -10.20457 -10.20253 -10.19993 -10.19947 -10.18413
 Alpha  occ. eigenvalues --  -10.18221 -10.17977 -10.17702 -10.15872  -9.48424
 Alpha  occ. eigenvalues --   -9.47970  -7.24836  -7.24456  -7.23882  -7.23836
 Alpha  occ. eigenvalues --   -7.23454  -7.23394  -0.93263  -0.88032  -0.86364
 Alpha  occ. eigenvalues --   -0.84994  -0.78579  -0.75462  -0.75143  -0.73860
 Alpha  occ. eigenvalues --   -0.64585  -0.63152  -0.61382  -0.59464  -0.54219
 Alpha  occ. eigenvalues --   -0.52762  -0.50554  -0.48676  -0.47741  -0.45356
 Alpha  occ. eigenvalues --   -0.44795  -0.44037  -0.43835  -0.43404  -0.39722
 Alpha  occ. eigenvalues --   -0.38975  -0.38079  -0.37783  -0.36026  -0.35451
 Alpha  occ. eigenvalues --   -0.34870  -0.32747  -0.29481  -0.27135  -0.26501
 Alpha  occ. eigenvalues --   -0.25941  -0.24201
 Alpha virt. eigenvalues --   -0.05919  -0.04357  -0.02501  -0.01773  -0.00250
 Alpha virt. eigenvalues --    0.00425   0.00995   0.01656   0.02081   0.02947
 Alpha virt. eigenvalues --    0.03689   0.04428   0.04795   0.05667   0.06050
 Alpha virt. eigenvalues --    0.06309   0.06937   0.07340   0.07999   0.08711
 Alpha virt. eigenvalues --    0.08784   0.09466   0.09741   0.10385   0.11384
 Alpha virt. eigenvalues --    0.11524   0.12185   0.12612   0.13287   0.13298
 Alpha virt. eigenvalues --    0.13312   0.14529   0.14909   0.14940   0.15636
 Alpha virt. eigenvalues --    0.16215   0.16301   0.17088   0.17715   0.17991
 Alpha virt. eigenvalues --    0.18218   0.18451   0.18493   0.19187   0.19699
 Alpha virt. eigenvalues --    0.19915   0.20068   0.20516   0.20742   0.21719
 Alpha virt. eigenvalues --    0.21780   0.22002   0.22615   0.22879   0.22961
 Alpha virt. eigenvalues --    0.23552   0.24133   0.25021   0.25478   0.26581
 Alpha virt. eigenvalues --    0.26806   0.27386   0.28002   0.28746   0.29415
 Alpha virt. eigenvalues --    0.29563   0.30130   0.31060   0.32241   0.32702
 Alpha virt. eigenvalues --    0.33033   0.33425   0.35069   0.36043   0.36916
 Alpha virt. eigenvalues --    0.37191   0.39685   0.42301   0.43329   0.43865
 Alpha virt. eigenvalues --    0.44587   0.46211   0.46620   0.47673   0.49868
 Alpha virt. eigenvalues --    0.50575   0.50970   0.52033   0.52837   0.53597
 Alpha virt. eigenvalues --    0.54362   0.54646   0.54836   0.55525   0.56214
 Alpha virt. eigenvalues --    0.56875   0.57408   0.58201   0.59045   0.59215
 Alpha virt. eigenvalues --    0.59810   0.62321   0.62452   0.62527   0.64496
 Alpha virt. eigenvalues --    0.64653   0.65199   0.66009   0.67177   0.68210
 Alpha virt. eigenvalues --    0.68919   0.69436   0.69505   0.70220   0.72056
 Alpha virt. eigenvalues --    0.74203   0.76370   0.77592   0.78513   0.80690
 Alpha virt. eigenvalues --    0.81570   0.82187   0.82515   0.83278   0.84194
 Alpha virt. eigenvalues --    0.84629   0.85160   0.86079   0.86162   0.86989
 Alpha virt. eigenvalues --    0.87406   0.90066   0.90160   0.90644   0.90748
 Alpha virt. eigenvalues --    0.92107   0.93944   0.94402   0.94963   0.95928
 Alpha virt. eigenvalues --    0.95971   0.97005   0.98070   0.98748   1.00860
 Alpha virt. eigenvalues --    1.01339   1.01965   1.03228   1.05463   1.06226
 Alpha virt. eigenvalues --    1.08009   1.08565   1.09218   1.11602   1.12734
 Alpha virt. eigenvalues --    1.14197   1.14919   1.15168   1.21279   1.24708
 Alpha virt. eigenvalues --    1.25885   1.28106   1.30061   1.30475   1.33210
 Alpha virt. eigenvalues --    1.35509   1.37676   1.45377   1.46466   1.47814
 Alpha virt. eigenvalues --    1.49664   1.51288   1.51430   1.53657   1.54712
 Alpha virt. eigenvalues --    1.56171   1.56339   1.57253   1.57319   1.58781
 Alpha virt. eigenvalues --    1.64501   1.65135   1.65745   1.66834   1.67323
 Alpha virt. eigenvalues --    1.70220   1.73057   1.74445   1.74724   1.77946
 Alpha virt. eigenvalues --    1.78391   1.80122   1.83840   1.84726   1.86735
 Alpha virt. eigenvalues --    1.87307   1.88201   1.88665   1.91204   1.91411
 Alpha virt. eigenvalues --    1.91854   1.94486   1.95652   1.95715   1.96445
 Alpha virt. eigenvalues --    1.97017   1.99316   2.00418   2.02534   2.05904
 Alpha virt. eigenvalues --    2.07736   2.08433   2.09729   2.13459   2.20725
 Alpha virt. eigenvalues --    2.22561   2.24531   2.27279   2.27413   2.28194
 Alpha virt. eigenvalues --    2.30025   2.32641   2.36621   2.37195   2.38429
 Alpha virt. eigenvalues --    2.40000   2.41455   2.43637   2.44167   2.45510
 Alpha virt. eigenvalues --    2.50032   2.53024   2.54034   2.59285   2.61864
 Alpha virt. eigenvalues --    2.64485   2.65731   2.66768   2.68736   2.69115
 Alpha virt. eigenvalues --    2.70121   2.72837   2.73290   2.74064   2.74515
 Alpha virt. eigenvalues --    2.74594   2.75865   2.76795   2.77650   2.78751
 Alpha virt. eigenvalues --    2.80258   2.82632   2.83059   2.85248   2.86960
 Alpha virt. eigenvalues --    2.86986   2.92743   2.94148   2.94294   2.98967
 Alpha virt. eigenvalues --    3.06169   3.08210   3.10749   3.15047   3.15753
 Alpha virt. eigenvalues --    3.19849   3.21494   3.24128   3.33770   3.36800
 Alpha virt. eigenvalues --    3.37206   3.39489   3.51284   3.53495   3.53780
 Alpha virt. eigenvalues --    3.58778   3.64652   3.71153   3.74040   3.95265
 Alpha virt. eigenvalues --    4.03235   4.05369   4.06534   4.11974   4.18570
 Alpha virt. eigenvalues --    4.22475   4.48378   4.80726   4.85041   9.78152
 Alpha virt. eigenvalues --    9.87714  23.44185  23.66479  23.87057  23.89554
 Alpha virt. eigenvalues --   23.93384  23.98077  23.99075  24.03204  24.06592
 Alpha virt. eigenvalues --   24.08950  24.12844  24.18185  25.79124  25.88686
 Alpha virt. eigenvalues --   26.15291  26.48978  26.75622  26.84922 215.77506
 Alpha virt. eigenvalues --  215.90049
          Condensed to atoms (all electrons):
               1          2          3          4          5          6
     1  C   12.648736  -2.639712  -1.717653  -0.958021   0.283533  -1.239941
     2  C   -2.639712  12.321982  -0.841050   0.850448  -1.772999  -1.680536
     3  C   -1.717653  -0.841050   9.656873   1.136249  -1.118913   0.553136
     4  C   -0.958021   0.850448   1.136249  11.819841  -5.860796  -1.512628
     5  C    0.283533  -1.772999  -1.118913  -5.860796  15.563615   1.092827
     6  C   -1.239941  -1.680536   0.553136  -1.512628   1.092827  12.494069
     7  C    3.120137  -0.806278  -0.932047  -0.029333  -1.539266  -3.029514
     8  C   -1.287261   4.159297  -1.203253   0.946312  -1.681568  -3.044385
     9  C   -0.792143  -0.257175  -0.168204  -0.062440  -0.237675  -0.660585
    10  C   -0.319242  -0.020218  -0.040392   0.053560  -0.026847   0.097910
    11  C   -0.605685  -0.182030   0.174892  -0.086303   0.459137  -0.213366
    12  C    0.094451  -3.981512   0.359431  -0.320764   1.198634   4.419993
    13  H    0.022780   0.378629  -0.140643  -0.008079  -0.008224  -0.045692
    14  H    0.024686  -0.025371   0.370104   0.011324  -0.032346  -0.011496
    15  H    0.040639  -0.020621  -0.066941   0.356657   0.044648  -0.003701
    16  H    0.049864   0.018034   0.028291  -0.004447   0.008608   0.015317
    17  H   -0.004563   0.006741   0.000485   0.000192  -0.000250   0.000541
    18  H    0.005615   0.003363   0.000352  -0.000030  -0.000043  -0.001577
    19  H    0.008419  -0.001605  -0.000222   0.000245   0.000817   0.007437
    20  H   -0.042531  -0.026348   0.007271  -0.016755   0.032421   0.133483
    21  Cl  -0.298765   0.732236   0.105533   0.680639  -0.538376  -1.289616
    22  Cl  -0.485156  -0.059187   0.214900  -0.390268  -0.212000   0.530132
               7          8          9         10         11         12
     1  C    3.120137  -1.287261  -0.792143  -0.319242  -0.605685   0.094451
     2  C   -0.806278   4.159297  -0.257175  -0.020218  -0.182030  -3.981512
     3  C   -0.932047  -1.203253  -0.168204  -0.040392   0.174892   0.359431
     4  C   -0.029333   0.946312  -0.062440   0.053560  -0.086303  -0.320764
     5  C   -1.539266  -1.681568  -0.237675  -0.026847   0.459137   1.198634
     6  C   -3.029514  -3.044385  -0.660585   0.097910  -0.213366   4.419993
     7  C   14.345056  -2.698681   1.482093  -1.708279   1.240506  -4.075152
     8  C   -2.698681  16.957632  -2.559190   1.001301  -1.634836  -3.569711
     9  C    1.482093  -2.559190   9.920926   0.131120   0.250723  -0.735948
    10  C   -1.708279   1.001301   0.131120   6.047400  -0.237628   0.739396
    11  C    1.240506  -1.634836   0.250723  -0.237628  11.778632  -4.160596
    12  C   -4.075152  -3.569711  -0.735948   0.739396  -4.160596  16.950877
    13  H    0.044947   0.052291   0.034556  -0.001671  -0.001724  -0.002851
    14  H    0.000097   0.013473   0.000829   0.000097  -0.000015  -0.002428
    15  H    0.001538   0.001255   0.000355  -0.000035   0.000190  -0.000414
    16  H    0.097168   0.264899  -0.110640  -0.028090   0.012818  -0.034074
    17  H    0.029325  -0.068940   0.391055   0.005147  -0.002456  -0.008122
    18  H    0.049853  -0.030940  -0.001114   0.354277  -0.015761  -0.017348
    19  H    0.012863   0.002165  -0.021987   0.005768   0.288968   0.042741
    20  H   -0.158116  -0.096560   0.002814  -0.014525   0.256894   0.423757
    21  Cl   0.318921   0.713274  -0.117618   0.061024  -1.030739  -1.063271
    22  Cl  -0.241865  -0.127163  -0.006175  -0.002778   0.038375   0.119613
              13         14         15         16         17         18
     1  C    0.022780   0.024686   0.040639   0.049864  -0.004563   0.005615
     2  C    0.378629  -0.025371  -0.020621   0.018034   0.006741   0.003363
     3  C   -0.140643   0.370104  -0.066941   0.028291   0.000485   0.000352
     4  C   -0.008079   0.011324   0.356657  -0.004447   0.000192  -0.000030
     5  C   -0.008224  -0.032346   0.044648   0.008608  -0.000250  -0.000043
     6  C   -0.045692  -0.011496  -0.003701   0.015317   0.000541  -0.001577
     7  C    0.044947   0.000097   0.001538   0.097168   0.029325   0.049853
     8  C    0.052291   0.013473   0.001255   0.264899  -0.068940  -0.030940
     9  C    0.034556   0.000829   0.000355  -0.110640   0.391055  -0.001114
    10  C   -0.001671   0.000097  -0.000035  -0.028090   0.005147   0.354277
    11  C   -0.001724  -0.000015   0.000190   0.012818  -0.002456  -0.015761
    12  C   -0.002851  -0.002428  -0.000414  -0.034074  -0.008122  -0.017348
    13  H    0.552260  -0.006634  -0.000261   0.001753  -0.000013  -0.000002
    14  H   -0.006634   0.529174  -0.007315   0.000004   0.000000  -0.000000
    15  H   -0.000261  -0.007315   0.510441  -0.000001  -0.000000   0.000000
    16  H    0.001753   0.000004  -0.000001   0.573813  -0.007645  -0.000277
    17  H   -0.000013   0.000000  -0.000000  -0.007645   0.541437  -0.007614
    18  H   -0.000002  -0.000000   0.000000  -0.000277  -0.007614   0.544129
    19  H    0.000001   0.000000  -0.000000   0.000108  -0.000318  -0.007041
    20  H   -0.000093  -0.000001   0.000004  -0.000222   0.000142  -0.000551
    21  Cl  -0.000709   0.000910   0.000534  -0.000343  -0.000208   0.000620
    22  Cl   0.000575  -0.000653  -0.006445   0.000070  -0.000001   0.000001
              19         20         21         22
     1  C    0.008419  -0.042531  -0.298765  -0.485156
     2  C   -0.001605  -0.026348   0.732236  -0.059187
     3  C   -0.000222   0.007271   0.105533   0.214900
     4  C    0.000245  -0.016755   0.680639  -0.390268
     5  C    0.000817   0.032421  -0.538376  -0.212000
     6  C    0.007437   0.133483  -1.289616   0.530132
     7  C    0.012863  -0.158116   0.318921  -0.241865
     8  C    0.002165  -0.096560   0.713274  -0.127163
     9  C   -0.021987   0.002814  -0.117618  -0.006175
    10  C    0.005768  -0.014525   0.061024  -0.002778
    11  C    0.288968   0.256894  -1.030739   0.038375
    12  C    0.042741   0.423757  -1.063271   0.119613
    13  H    0.000001  -0.000093  -0.000709   0.000575
    14  H    0.000000  -0.000001   0.000910  -0.000653
    15  H   -0.000000   0.000004   0.000534  -0.006445
    16  H    0.000108  -0.000222  -0.000343   0.000070
    17  H   -0.000318   0.000142  -0.000208  -0.000001
    18  H   -0.007041  -0.000551   0.000620   0.000001
    19  H    0.551216  -0.014656   0.004716  -0.000010
    20  H   -0.014656   0.728363  -0.337944   0.006271
    21  Cl   0.004716  -0.337944  18.584643  -0.225297
    22  Cl  -0.000010   0.006271  -0.225297  17.326362
 Mulliken charges:
               1
     1  C    0.091813
     2  C   -0.156087
     3  C   -0.378198
     4  C   -0.605604
     5  C    0.345059
     6  C   -0.611808
     7  C    0.476029
     8  C   -0.109410
     9  C   -0.483574
    10  C   -0.097295
    11  C   -0.329994
    12  C   -0.376705
    13  H    0.128801
    14  H    0.135561
    15  H    0.149471
    16  H    0.114993
    17  H    0.125066
    18  H    0.124090
    19  H    0.120374
    20  H    0.116881
    21  Cl   0.699835
    22  Cl   0.520702
 Sum of Mulliken charges =  -0.00000
 Mulliken charges with hydrogens summed into heavy atoms:
               1
     1  C    0.091813
     2  C   -0.027286
     3  C   -0.242637
     4  C   -0.456133
     5  C    0.345059
     6  C   -0.611808
     7  C    0.476029
     8  C    0.005583
     9  C   -0.358508
    10  C    0.026795
    11  C   -0.209621
    12  C   -0.259823
    21  Cl   0.699835
    22  Cl   0.520702
 Electronic spatial extent (au):  <R**2>=           3696.3096
 Charge=             -0.0000 electrons
 Dipole moment (field-independent basis, Debye):
    X=              0.8196    Y=              2.0476    Z=              0.0000  Tot=              2.2055
 Quadrupole moment (field-independent basis, Debye-Ang):
   XX=            -90.6826   YY=            -84.6363   ZZ=           -101.1315
   XY=             -4.2830   XZ=              0.0000   YZ=             -0.0000
 Traceless Quadrupole moment (field-independent basis, Debye-Ang):
   XX=              1.4675   YY=              7.5138   ZZ=             -8.9814
   XY=             -4.2830   XZ=              0.0000   YZ=             -0.0000
 Octapole moment (field-independent basis, Debye-Ang**2):
  XXX=             10.1319  YYY=              1.5687  ZZZ=             -0.0000  XYY=             -2.3987
  XXY=              8.2999  XXZ=              0.0001  XZZ=            -14.2562  YZZ=             -8.7762
  YYZ=              0.0001  XYZ=             -0.0001
 Hexadecapole moment (field-independent basis, Debye-Ang**3):
 XXXX=          -3488.6695 YYYY=          -1134.3613 ZZZZ=           -120.5462 XXXY=            -11.8055
 XXXZ=              0.0002 YYYX=             -9.6772 YYYZ=             -0.0000 ZZZX=              0.0001
 ZZZY=              0.0000 XXYY=           -752.7549 XXZZ=           -696.4770 YYZZ=           -250.2003
 XXYZ=             -0.0002 YYXZ=              0.0001 ZZXY=             13.0509
 N-N= 1.002667596500D+03 E-N=-5.265076359364D+03  KE= 1.378646211853D+03
 Calling FoFJK, ICntrl=      2127 FMM=F ISym2X=0 I1Cent= 0 IOpClX= 0 NMat=1 NMatS=1 NMatT=0.
 ***** Axes restored to original set *****
 -------------------------------------------------------------------
 Center     Atomic                   Forces (Hartrees/Bohr)
 Number     Number              X              Y              Z
 -------------------------------------------------------------------
      1        6          -0.019394947   -0.033512030    0.000095796
      2        6          -0.000840416    0.024728423    0.004921213
      3        6          -0.019733242   -0.004520429    0.005652347
      4        6          -0.006432832   -0.011540971   -0.000048405
      5        6           0.001199901    0.001067009   -0.000194869
      6        6           0.005336709    0.001783238   -0.001423237
      7        6           0.014318456    0.024400114   -0.000134596
      8        6          -0.016688787   -0.008214273    0.003955583
      9        6          -0.004714486    0.016153182    0.004586878
     10        6           0.004443523    0.012346621    0.000854885
     11        6           0.022595553   -0.005274800   -0.008434781
     12        6          -0.006324841   -0.053095317   -0.007887910
     13        1           0.004058294   -0.004308244   -0.002146210
     14        1           0.008888167    0.001177207   -0.002707146
     15        1           0.002673491    0.008416766    0.000699959
     16        1           0.006739719   -0.003541504   -0.002885686
     17        1           0.004707944   -0.008097997   -0.003071907
     18        1          -0.004663978   -0.009308095   -0.000211620
     19        1          -0.009653890    0.000056004    0.003190997
     20        1          -0.002978935   -0.050971017   -0.008591156
     21       17           0.010394810    0.104735794    0.016245245
     22       17           0.006069784   -0.002479681   -0.002465381
 -------------------------------------------------------------------
 Cartesian Forces:  Max     0.104735794 RMS     0.018509124

 GradGradGradGradGradGradGradGradGradGradGradGradGradGradGradGradGradGrad
 Berny optimization.
 FormGI is forming the generalized inverse of G from B-inverse, IUseBI=4.
 Internal  Forces:  Max     0.282435572 RMS     0.051447382
 Search for a local minimum.
 Step number   1 out of a maximum of  121
 All quantities printed in internal units (Hartrees-Bohrs-Radians)
 Mixed Optimization -- RFO/linear search
 Second derivative matrix not updated -- first step.
 ITU=  0
     Eigenvalues ---    0.00237   0.01506   0.01506   0.02070   0.02070
     Eigenvalues ---    0.02070   0.02070   0.02070   0.02070   0.02070
     Eigenvalues ---    0.02070   0.02070   0.02070   0.02070   0.02070
     Eigenvalues ---    0.02070   0.02070   0.02070   0.02070   0.16000
     Eigenvalues ---    0.16000   0.16000   0.16000   0.16000   0.16000
     Eigenvalues ---    0.16000   0.16000   0.22000   0.22000   0.22085
     Eigenvalues ---    0.23478   0.23485   0.24913   0.25000   0.25000
     Eigenvalues ---    0.25000   0.25000   0.28519   0.29539   0.29539
     Eigenvalues ---    0.37230   0.37230   0.37230   0.37230   0.37230
     Eigenvalues ---    0.37230   0.37230   0.37230   0.41268   0.41459
     Eigenvalues ---    0.41535   0.41554   0.45389   0.45389   0.45389
     Eigenvalues ---    0.45389   0.45389   0.45389   0.45389   0.45389
 RFO step:  Lambda=-4.26707023D-01 EMin= 2.36824243D-03
 Linear search not attempted -- first point.
 Maximum step size (   0.300) exceeded in Quadratic search.
    -- Step size scaled by   0.380
 Iteration  1 RMS(Cart)=  0.19745072 RMS(Int)=  0.00980521
 Iteration  2 RMS(Cart)=  0.03479388 RMS(Int)=  0.00028268
 Iteration  3 RMS(Cart)=  0.00053840 RMS(Int)=  0.00004650
 Iteration  4 RMS(Cart)=  0.00000016 RMS(Int)=  0.00004650
 Variable       Old X    -DE/DX   Delta X   Delta X   Delta X     New X
                                 (Linear)    (Quad)   (Total)
    R1        2.64826   0.01939   0.00000   0.00889   0.00899   2.65725
    R2        2.64826   0.12382   0.00000   0.05472   0.05480   2.70307
    R3        2.91018   0.06982   0.00000   0.03730   0.03730   2.94748
    R4        2.64826  -0.02297   0.00000  -0.01065  -0.01063   2.63763
    R5        2.02201   0.00609   0.00000   0.00290   0.00290   2.02491
    R6        2.64826  -0.04265   0.00000  -0.01966  -0.01974   2.62852
    R7        2.02201   0.00931   0.00000   0.00443   0.00443   2.02644
    R8        2.64826  -0.03189   0.00000  -0.01429  -0.01439   2.63387
    R9        2.02201   0.00861   0.00000   0.00410   0.00410   2.02611
   R10        2.64826   0.01246   0.00000   0.00611   0.00609   2.65435
   R11        3.32592  -0.00554   0.00000  -0.00292  -0.00292   3.32300
   R12        3.32592  -0.00709   0.00000  -0.00374  -0.00374   3.32218
   R13        2.64826   0.01811   0.00000   0.00805   0.00810   2.65636
   R14        2.64826   0.01785   0.00000   0.00804   0.00808   2.65634
   R15        2.64826  -0.01207   0.00000  -0.00531  -0.00531   2.64295
   R16        2.02201   0.00722   0.00000   0.00344   0.00344   2.02545
   R17        2.64826  -0.02535   0.00000  -0.01128  -0.01132   2.63694
   R18        2.02201   0.00985   0.00000   0.00469   0.00469   2.02670
   R19        2.64826  -0.02307   0.00000  -0.01020  -0.01024   2.63802
   R20        2.02201   0.01039   0.00000   0.00495   0.00495   2.02695
   R21        2.64826   0.00057   0.00000   0.00034   0.00034   2.64860
   R22        2.02201   0.01016   0.00000   0.00484   0.00484   2.02685
   R23        2.02201  -0.04419   0.00000  -0.02104  -0.02104   2.00097
    A1        2.09440  -0.07699   0.00000  -0.04113  -0.04094   2.05346
    A2        2.09440  -0.20545   0.00000  -0.11655  -0.11664   1.97775
    A3        2.09440   0.28244   0.00000   0.15767   0.15758   2.25197
    A4        2.09440   0.05933   0.00000   0.03440   0.03452   2.12892
    A5        2.09440  -0.02805   0.00000  -0.01615  -0.01621   2.07818
    A6        2.09440  -0.03129   0.00000  -0.01825  -0.01831   2.07609
    A7        2.09440   0.00351   0.00000  -0.00088  -0.00094   2.09345
    A8        2.09440  -0.00075   0.00000   0.00109   0.00112   2.09552
    A9        2.09440  -0.00276   0.00000  -0.00021  -0.00018   2.09421
   A10        2.09440  -0.00813   0.00000  -0.00743  -0.00762   2.08678
   A11        2.09440   0.00617   0.00000   0.00508   0.00517   2.09957
   A12        2.09440   0.00197   0.00000   0.00235   0.00244   2.09684
   A13        2.09440   0.04141   0.00000   0.02337   0.02324   2.11764
   A14        2.09440  -0.02783   0.00000  -0.01569  -0.01562   2.07877
   A15        2.09440  -0.01358   0.00000  -0.00768  -0.00762   2.08678
   A16        2.09440  -0.01913   0.00000  -0.00833  -0.00827   2.08613
   A17        2.09440   0.18627   0.00000   0.10348   0.10345   2.19785
   A18        2.09440  -0.16714   0.00000  -0.09516  -0.09519   1.99921
   A19        2.09440  -0.13502   0.00000  -0.07614  -0.07618   2.01821
   A20        2.09440   0.19747   0.00000   0.11075   0.11070   2.20510
   A21        2.09440  -0.06245   0.00000  -0.03461  -0.03452   2.05987
   A22        2.09440   0.03879   0.00000   0.02273   0.02278   2.11718
   A23        2.09440  -0.01560   0.00000  -0.00891  -0.00893   2.08547
   A24        2.09440  -0.02319   0.00000  -0.01383  -0.01385   2.08054
   A25        2.09440   0.00231   0.00000   0.00050   0.00046   2.09486
   A26        2.09440  -0.00154   0.00000  -0.00050  -0.00048   2.09391
   A27        2.09440  -0.00077   0.00000  -0.00000   0.00002   2.09441
   A28        2.09440  -0.01380   0.00000  -0.00917  -0.00925   2.08514
   A29        2.09440   0.00617   0.00000   0.00411   0.00415   2.09855
   A30        2.09440   0.00763   0.00000   0.00506   0.00510   2.09950
   A31        2.09440   0.01476   0.00000   0.00822   0.00817   2.10257
   A32        2.09440  -0.00710   0.00000  -0.00393  -0.00390   2.09049
   A33        2.09440  -0.00766   0.00000  -0.00429  -0.00427   2.09013
   A34        2.09440   0.02040   0.00000   0.01232   0.01236   2.10675
   A35        2.09440   0.01707   0.00000   0.01152   0.01150   2.10590
   A36        2.09440  -0.03747   0.00000  -0.02384  -0.02386   2.07054
    D1        0.00000   0.00000   0.00000   0.00000   0.00000   0.00000
    D2        3.14159   0.00000   0.00000   0.00000   0.00000   3.14159
    D3       -3.14159   0.00000   0.00000   0.00000   0.00000  -3.14159
    D4       -0.00000   0.00000   0.00000   0.00000   0.00000  -0.00000
    D5       -0.00000  -0.00000   0.00000  -0.00000  -0.00000  -0.00000
    D6        3.14159  -0.00000   0.00000  -0.00000  -0.00000   3.14159
    D7        3.14159   0.00000   0.00000   0.00000   0.00000   3.14159
    D8        0.00000  -0.00000   0.00000  -0.00000  -0.00000  -0.00000
    D9       -0.00000  -0.00000   0.00000  -0.00000  -0.00000  -0.00000
   D10        3.14159  -0.00000   0.00000  -0.00000  -0.00000   3.14159
   D11        3.14159  -0.00000   0.00000  -0.00000  -0.00000   3.14159
   D12       -0.00000  -0.00000   0.00000  -0.00000  -0.00000  -0.00000
   D13        0.00000  -0.00000   0.00000  -0.00000  -0.00000   0.00000
   D14        3.14159  -0.00000   0.00000  -0.00000  -0.00000   3.14159
   D15       -3.14159  -0.00000   0.00000  -0.00000  -0.00000  -3.14159
   D16        0.00000  -0.00000   0.00000  -0.00000  -0.00000   0.00000
   D17       -0.00000  -0.00000   0.00000  -0.00000  -0.00000  -0.00000
   D18        3.14159   0.00000   0.00000   0.00000   0.00000   3.14159
   D19        3.14159  -0.00000   0.00000  -0.00000  -0.00000   3.14159
   D20        0.00000   0.00000   0.00000   0.00000   0.00000   0.00000
   D21        0.00000   0.00000   0.00000   0.00000   0.00000   0.00000
   D22       -3.14159   0.00000   0.00000   0.00000   0.00000  -3.14159
   D23       -3.14159  -0.00000   0.00000  -0.00000  -0.00000  -3.14159
   D24        0.00000   0.00000   0.00000   0.00000   0.00000   0.00000
   D25       -0.00000   0.00000   0.00000   0.00000   0.00000  -0.00000
   D26        3.14159   0.00000   0.00000   0.00000   0.00000   3.14159
   D27        3.14159  -0.00000   0.00000  -0.00000  -0.00000   3.14159
   D28       -0.00000   0.00000   0.00000   0.00000   0.00000  -0.00000
   D29        3.14159   0.00000   0.00000   0.00000   0.00000   3.14159
   D30        0.00000   0.00000   0.00000   0.00000   0.00000   0.00000
   D31        0.00000   0.00000   0.00000   0.00000   0.00000   0.00000
   D32       -3.14159  -0.00000   0.00000  -0.00000  -0.00000  -3.14159
   D33       -3.14159   0.00000   0.00000   0.00000   0.00000  -3.14159
   D34        0.00000   0.00000   0.00000  -0.00000  -0.00000   0.00000
   D35       -0.00000  -0.00000   0.00000  -0.00000  -0.00000  -0.00000
   D36        3.14159  -0.00000   0.00000  -0.00000  -0.00000   3.14159
   D37       -0.00000  -0.00000   0.00000  -0.00000  -0.00000  -0.00000
   D38        3.14159  -0.00000   0.00000  -0.00000  -0.00000   3.14159
   D39        3.14159   0.00000   0.00000   0.00000   0.00000   3.14159
   D40       -0.00000   0.00000   0.00000   0.00000   0.00000  -0.00000
   D41       -0.00000  -0.00000   0.00000  -0.00000  -0.00000  -0.00000
   D42       -3.14159  -0.00000   0.00000  -0.00000  -0.00000  -3.14159
   D43        3.14159  -0.00000   0.00000  -0.00000  -0.00000   3.14159
   D44        0.00000  -0.00000   0.00000  -0.00000  -0.00000   0.00000
   D45        0.00000   0.00000   0.00000   0.00000   0.00000   0.00000
   D46       -3.14159   0.00000   0.00000   0.00000   0.00000  -3.14159
   D47        3.14159   0.00000   0.00000   0.00000   0.00000   3.14159
   D48        0.00000   0.00000   0.00000   0.00000   0.00000   0.00000
   D49        0.00000   0.00000   0.00000   0.00000   0.00000   0.00000
   D50       -3.14159   0.00000   0.00000   0.00000   0.00000  -3.14159
   D51        3.14159   0.00000   0.00000   0.00000   0.00000   3.14159
   D52       -0.00000   0.00000   0.00000   0.00000   0.00000  -0.00000
         Item               Value     Threshold  Converged?
 Maximum Force            0.282436     0.000450     NO 
 RMS     Force            0.051447     0.000300     NO 
 Maximum Displacement     1.143984     0.001800     NO 
 RMS     Displacement     0.227439     0.001200     NO 
 Predicted change in Energy=-1.506322D-01
 GradGradGradGradGradGradGradGradGradGradGradGradGradGradGradGradGradGrad

                          Input orientation:                          
 ---------------------------------------------------------------------
 Center     Atomic      Atomic             Coordinates (Angstroms)
 Number     Number       Type             X           Y           Z
 ---------------------------------------------------------------------
      1          6           0       -1.735598   -0.707841    0.074032
      2          6           0       -0.408376   -0.801783   -0.380872
      3          6           0        0.430540    0.311717   -0.448130
      4          6           0       -0.040969    1.560864   -0.058187
      5          6           0       -1.351754    1.689488    0.397812
      6          6           0       -2.211107    0.580947    0.472735
      7          6           0       -2.489161   -2.073441    0.065825
      8          6           0       -1.744330   -3.176345   -0.386700
      9          6           0       -2.303482   -4.457062   -0.443014
     10          6           0       -3.625618   -4.659838   -0.045509
     11          6           0       -4.380668   -3.576269    0.406752
     12          6           0       -3.819576   -2.293129    0.462882
     13          1           0       -0.028657   -1.756428   -0.685261
     14          1           0        1.437854    0.204946   -0.800046
     15          1           0        0.598602    2.419968   -0.107548
     16          1           0       -0.727579   -3.035548   -0.695231
     17          1           0       -1.715650   -5.283474   -0.791887
     18          1           0       -4.057859   -5.640618   -0.087302
     19          1           0       -5.397384   -3.726542    0.713497
     20          1           0       -4.418535   -1.492184    0.810640
     21         17           0       -3.823002    0.945632    1.072272
     22         17           0       -1.935304    3.274302    0.887705
 ---------------------------------------------------------------------
                    Distance matrix (angstroms):
                    1          2          3          4          5
     1  C    0.000000
     2  C    1.406158   0.000000
     3  C    2.450368   1.395774   0.000000
     4  C    2.834832   2.412720   1.390951   0.000000
     5  C    2.449358   2.775381   2.406334   1.393785   0.000000
     6  C    1.430401   2.427020   2.810477   2.439594   1.404623
     7  C    1.559740   2.479177   3.804968   4.383742   3.945065
     8  C    2.511148   2.724583   4.111011   5.044850   4.944280
     9  C    3.827073   4.117809   5.496922   6.440690   6.276372
    10  C    4.382323   5.034650   6.428910   7.179625   6.758767
    11  C    3.915990   4.908892   6.244596   6.740867   6.074750
    12  C    2.647132   3.817370   5.067410   5.422420   4.685682
    13  H    2.142360   1.071534   2.131740   3.376063   3.846812
    14  H    3.415844   2.144242   1.072346   2.139109   3.379443
    15  H    3.907000   3.386501   2.142187   1.072169   2.143100
    16  H    2.650677   2.278248   3.550560   4.690870   4.889815
    17  H    4.656891   4.686518   6.002537   7.084337   7.083078
    18  H    5.454467   6.067885   7.463659   8.246065   7.828715
    19  H    4.788543   5.885750   7.184818   7.565933   6.767581
    20  H    2.890664   4.240015   5.324668   5.407314   4.438311
    21  Cl   2.843890   4.101800   4.561369   3.995025   2.667449
    22  Cl   4.069325   4.533792   4.019774   2.723800   1.758455
                    6          7          8          9         10
     6  C    0.000000
     7  C    2.699752   0.000000
     8  C    3.882493   1.405685   0.000000
     9  C    5.121392   2.444390   1.398591   0.000000
    10  C    5.453003   2.827257   2.420002   1.395411   0.000000
    11  C    4.689753   2.439779   2.782046   2.410933   1.395981
    12  C    3.293566   1.405674   2.410084   2.793169   2.428455
    13  H    3.401083   2.592047   2.246962   3.539342   4.666606
    14  H    3.882817   4.621928   4.661575   5.988271   7.062167
    15  H    3.407814   5.454820   6.073383   7.471825   8.244486
    16  H    4.079710   2.146631   1.071820   2.137238   3.385128
    17  H    6.019649   3.411495   2.145924   1.072481   2.143358
    18  H    6.513985   3.899873   3.393331   2.145966   1.072617
    19  H    5.363281   3.407343   3.854601   3.382810   2.141561
    20  H    3.047095   2.148277   3.379555   3.851700   3.375758
    21  Cl   1.758023   3.450633   4.841505   5.813272   5.719239
    22  Cl   2.739057   5.438805   6.578102   7.853684   8.165699
                   11         12         13         14         15
    11  C    0.000000
    12  C    1.401579   0.000000
    13  H    4.841933   3.997167   0.000000
    14  H    7.043376   5.956167   2.451696   0.000000
    15  H    7.811049   6.485288   4.262568   2.467837   0.000000
    16  H    3.853804   3.384207   1.457649   3.898831   5.645067
    17  H    3.384318   3.865632   3.911185   6.329881   8.072614
    18  H    2.147052   3.400759   5.628406   8.054904   9.308925
    19  H    1.072560   2.146383   5.887368   8.029189   8.625865
    20  H    2.123197   1.058867   4.645274   6.306493   6.428038
    21  Cl   4.604508   3.295594   4.978665   5.633009   4.807934
    22  Cl   7.289817   5.892982   5.605155   4.862884   2.853261
                   16         17         18         19         20
    16  H    0.000000
    17  H    2.457396   0.000000
    18  H    4.271619   2.471828   0.000000
    19  H    4.926364   4.271462   2.469675   0.000000
    20  H    4.274666   4.924181   4.259799   2.441298   0.000000
    21  Cl   5.343735   6.835041   6.691671   4.943340   2.523105
    22  Cl   6.616532   8.723807   9.215838   7.812052   5.375106
                   21         22
    21  Cl   0.000000
    22  Cl   3.003360   0.000000
 Stoichiometry    C12H8Cl2
 Framework group  C1[X(C12H8Cl2)]
 Deg. of freedom    60
 Full point group                 C1      NOp   1
 Largest Abelian subgroup         C1      NOp   1
 Largest concise Abelian subgroup C1      NOp   1
                         Standard orientation:                         
 ---------------------------------------------------------------------
 Center     Atomic      Atomic             Coordinates (Angstroms)
 Number     Number       Type             X           Y           Z
 ---------------------------------------------------------------------
      1          6           0        0.148139    0.574157   -0.000000
      2          6           0       -0.023362    1.969818   -0.000000
      3          6           0       -1.288647    2.559088    0.000001
      4          6           0       -2.426911    1.759650    0.000003
      5          6           0       -2.292889    0.372324    0.000001
      6          6           0       -1.028427   -0.239316   -0.000000
      7          6           0        1.645097    0.136089   -0.000001
      8          6           0        2.584712    1.181591   -0.000003
      9          6           0        3.959250    0.923323   -0.000003
     10          6           0        4.422410   -0.392980    0.000000
     11          6           0        3.503900   -1.444219    0.000003
     12          6           0        2.126586   -1.184551    0.000003
     13          1           0        0.842684    2.600809    0.000000
     14          1           0       -1.383822    3.627202    0.000002
     15          1           0       -3.401593    2.206350    0.000005
     16          1           0        2.243467    2.197637   -0.000003
     17          1           0        4.657392    1.737457   -0.000005
     18          1           0        5.475842   -0.594939    0.000002
     19          1           0        3.854484   -2.457864    0.000009
     20          1           0        1.455778   -2.003829    0.000007
     21         17           0       -1.067317   -1.996908   -0.000002
     22         17           0       -3.739941   -0.626778   -0.000001
 ---------------------------------------------------------------------
 Rotational constants (GHZ):           1.1606585           0.3324956           0.2584555
 Standard basis: 6-311+G(d,p) (5D, 7F)
 There are   386 symmetry adapted cartesian basis functions of A   symmetry.
 There are   372 symmetry adapted basis functions of A   symmetry.
   372 basis functions,   602 primitive gaussians,   386 cartesian basis functions
    57 alpha electrons       57 beta electrons
       nuclear repulsion energy       986.7165510628 Hartrees.
 NAtoms=   22 NActive=   22 NUniq=   22 SFac= 1.00D+00 NAtFMM=   60 NAOKFM=F Big=F
 Integral buffers will be    131072 words long.
 Raffenetti 2 integral format.
 Two-electron integral symmetry is turned on.
 One-electron integrals computed using PRISM.
 NBasis=   372 RedAO= T EigKep=  2.37D-06  NBF=   372
 NBsUse=   367 1.00D-06 EigRej=  9.23D-07 NBFU=   367
 Initial guess from the checkpoint file:  "/scratch/pkc/Gau-2751.chk"
 B after Tr=    -0.000000    0.000000    0.000000
         Rot=    0.999698    0.000000   -0.000000    0.024593 Ang=   2.82 deg.
 ExpMin= 4.38D-02 ExpMax= 1.06D+05 ExpMxC= 3.62D+03 IAcc=3 IRadAn=         5 AccDes= 0.00D+00
 Harris functional with IExCor=  402 and IRadAn=       5 diagonalized for initial guess.
 HarFok:  IExCor=  402 AccDes= 0.00D+00 IRadAn=         5 IDoV= 1 UseB2=F ITyADJ=14
 ICtDFT=  3500011 ScaDFX=  1.000000  1.000000  1.000000  1.000000
 FoFCou: FMM=F IPFlag=           0 FMFlag=      100000 FMFlg1=           0
         NFxFlg=           0 DoJE=T BraDBF=F KetDBF=T FulRan=T
         wScrn=  0.000000 ICntrl=       500 IOpCl=  0 I1Cent=   200000004 NGrid=           0
         NMat0=    1 NMatS0=      1 NMatT0=    0 NMatD0=    1 NMtDS0=    0 NMtDT0=    0
 Petite list used in FoFCou.
 Requested convergence on RMS density matrix=1.00D-08 within  32 cycles.
 Requested convergence on MAX density matrix=1.00D-06.
 Requested convergence on             energy=1.00D-06.
 No special actions if energy rises.
 SCF Done:  E(RB3LYP) =  -1382.63470159     A.U. after   16 cycles
            NFock= 16  Conv=0.24D-08     -V/T= 2.0031
 QCSCF skips out because SCF is already converged.
 Calling FoFJK, ICntrl=      2127 FMM=F ISym2X=0 I1Cent= 0 IOpClX= 0 NMat=1 NMatS=1 NMatT=0.
 ***** Axes restored to original set *****
 -------------------------------------------------------------------
 Center     Atomic                   Forces (Hartrees/Bohr)
 Number     Number              X              Y              Z
 -------------------------------------------------------------------
      1        6          -0.015915068   -0.019165055    0.001643837
      2        6           0.003704448    0.027404476    0.003926485
      3        6          -0.014332301   -0.003258899    0.004109903
      4        6          -0.003986823   -0.004399719    0.000486953
      5        6           0.001802828   -0.001089168   -0.000798459
      6        6           0.006400730   -0.006909221   -0.003406322
      7        6           0.011148205    0.022242763    0.000504673
      8        6          -0.016569302   -0.014822736    0.002675073
      9        6          -0.004179838    0.013197365    0.003855601
     10        6           0.002031019    0.009567108    0.001127698
     11        6           0.014014774    0.002720346   -0.004106202
     12        6           0.008411227   -0.012851629   -0.005184874
     13        1           0.006845700    0.008187951   -0.000717616
     14        1           0.007313112   -0.000423918   -0.002488942
     15        1           0.002815243    0.006804529    0.000350466
     16        1          -0.002309931   -0.012384989   -0.001565149
     17        1           0.005019662   -0.005786052   -0.002740401
     18        1          -0.003327551   -0.007305890   -0.000275882
     19        1          -0.007581465   -0.000026989    0.002492622
     20        1          -0.007617593    0.011312531    0.004634256
     21       17          -0.001375329   -0.013421129   -0.002067519
     22       17           0.007688252    0.000408322   -0.002456200
 -------------------------------------------------------------------
 Cartesian Forces:  Max     0.027404476 RMS     0.008463927

 GradGradGradGradGradGradGradGradGradGradGradGradGradGradGradGradGradGrad
 Berny optimization.
 Using GEDIIS/GDIIS optimizer.
 FormGI is forming the generalized inverse of G from B-inverse, IUseBI=4.
 Internal  Forces:  Max     0.063487201 RMS     0.011932510
 Search for a local minimum.
 Step number   2 out of a maximum of  121
 All quantities printed in internal units (Hartrees-Bohrs-Radians)
 Mixed Optimization -- RFO/linear search
 Update second derivatives using D2CorX and points    1    2
 DE= -3.85D-02 DEPred=-1.51D-01 R= 2.56D-01
 Trust test= 2.56D-01 RLast= 3.00D-01 DXMaxT set to 3.00D-01
 ITU=  0  0
 Use linear search instead of GDIIS.
     Eigenvalues ---    0.00237   0.01479   0.01484   0.02070   0.02070
     Eigenvalues ---    0.02070   0.02070   0.02070   0.02070   0.02070
     Eigenvalues ---    0.02070   0.02070   0.02070   0.02070   0.02070
     Eigenvalues ---    0.02070   0.02070   0.02070   0.02070   0.15973
     Eigenvalues ---    0.16000   0.16000   0.16000   0.16000   0.16000
     Eigenvalues ---    0.16000   0.16035   0.21998   0.22004   0.22093
     Eigenvalues ---    0.23357   0.23464   0.24852   0.24950   0.25000
     Eigenvalues ---    0.25000   0.28446   0.29536   0.29539   0.37059
     Eigenvalues ---    0.37177   0.37230   0.37230   0.37230   0.37230
     Eigenvalues ---    0.37230   0.37230   0.40304   0.41172   0.41460
     Eigenvalues ---    0.41542   0.45052   0.45360   0.45389   0.45389
     Eigenvalues ---    0.45389   0.45389   0.45389   0.45389   2.15674
 RFO step:  Lambda=-1.22975603D-02 EMin= 2.36824243D-03
 Quartic linear search produced a step of -0.33850.
 Iteration  1 RMS(Cart)=  0.13562275 RMS(Int)=  0.00387507
 Iteration  2 RMS(Cart)=  0.00696946 RMS(Int)=  0.00005242
 Iteration  3 RMS(Cart)=  0.00002287 RMS(Int)=  0.00005198
 Iteration  4 RMS(Cart)=  0.00000000 RMS(Int)=  0.00005198
 Variable       Old X    -DE/DX   Delta X   Delta X   Delta X     New X
                                 (Linear)    (Quad)   (Total)
    R1        2.65725   0.00766  -0.00304   0.01901   0.01605   2.67330
    R2        2.70307  -0.01628  -0.01855   0.02716   0.00869   2.71175
    R3        2.94748  -0.00468  -0.01263   0.02208   0.00946   2.95694
    R4        2.63763  -0.00624   0.00360  -0.01859  -0.01499   2.62264
    R5        2.02491  -0.00467  -0.00098  -0.00541  -0.00639   2.01852
    R6        2.62852  -0.00716   0.00668  -0.02822  -0.02162   2.60690
    R7        2.02644   0.00773  -0.00150   0.01727   0.01577   2.04221
    R8        2.63387  -0.00972   0.00487  -0.02693  -0.02214   2.61173
    R9        2.02611   0.00712  -0.00139   0.01592   0.01453   2.04064
   R10        2.65435   0.00545  -0.00206   0.01329   0.01122   2.66558
   R11        3.32300  -0.00287   0.00099  -0.00871  -0.00773   3.31527
   R12        3.32218  -0.00223   0.00126  -0.00805  -0.00679   3.31539
   R13        2.65636   0.01094  -0.00274   0.02359   0.02090   2.67726
   R14        2.65634  -0.00151  -0.00273   0.00548   0.00284   2.65918
   R15        2.64295  -0.00648   0.00180  -0.01362  -0.01185   2.63110
   R16        2.02545  -0.00337  -0.00116  -0.00269  -0.00386   2.02159
   R17        2.63694  -0.00505   0.00383  -0.01777  -0.01402   2.62292
   R18        2.02670   0.00810  -0.00159   0.01814   0.01656   2.04325
   R19        2.63802  -0.00846   0.00347  -0.02203  -0.01862   2.61940
   R20        2.02695   0.00803  -0.00167   0.01825   0.01658   2.04353
   R21        2.64860  -0.00725  -0.00011  -0.01040  -0.01048   2.63812
   R22        2.02685   0.00790  -0.00164   0.01794   0.01630   2.04314
   R23        2.00097   0.01439   0.00712   0.00580   0.01292   2.01389
    A1        2.05346  -0.01386   0.01386  -0.06993  -0.05590   1.99756
    A2        1.97775   0.06349   0.03948   0.06053   0.09992   2.07768
    A3        2.25197  -0.04963  -0.05334   0.00940  -0.04402   2.20795
    A4        2.12892   0.00566  -0.01168   0.04472   0.03312   2.16204
    A5        2.07818   0.00692   0.00549   0.01584   0.02129   2.09947
    A6        2.07609  -0.01257   0.00620  -0.06056  -0.05441   2.02168
    A7        2.09345   0.00323   0.00032   0.00824   0.00848   2.10193
    A8        2.09552  -0.00126  -0.00038  -0.00224  -0.00258   2.09294
    A9        2.09421  -0.00197   0.00006  -0.00600  -0.00590   2.08832
   A10        2.08678  -0.00447   0.00258  -0.01928  -0.01687   2.06991
   A11        2.09957   0.00419  -0.00175   0.01819   0.01653   2.11609
   A12        2.09684   0.00028  -0.00083   0.00109   0.00034   2.09718
   A13        2.11764  -0.00113  -0.00787   0.01676   0.00881   2.12645
   A14        2.07877  -0.01199   0.00529  -0.04343  -0.03810   2.04067
   A15        2.08678   0.01312   0.00258   0.02667   0.02929   2.11607
   A16        2.08613   0.01059   0.00280   0.01948   0.02236   2.10849
   A17        2.19785  -0.02766  -0.03502   0.01862  -0.01644   2.18141
   A18        1.99921   0.01708   0.03222  -0.03810  -0.00592   1.99329
   A19        2.01821   0.05757   0.02579   0.07953   0.10524   2.12345
   A20        2.20510  -0.04397  -0.03747  -0.01694  -0.05449   2.15061
   A21        2.05987  -0.01361   0.01169  -0.06259  -0.05075   2.00913
   A22        2.11718   0.00279  -0.00771   0.02857   0.02088   2.13806
   A23        2.08547   0.01100   0.00302   0.03518   0.03819   2.12366
   A24        2.08054  -0.01379   0.00469  -0.06375  -0.05907   2.02147
   A25        2.09486   0.00370  -0.00016   0.01069   0.01040   2.10526
   A26        2.09391  -0.00260   0.00016  -0.00843  -0.00821   2.08571
   A27        2.09441  -0.00109  -0.00001  -0.00225  -0.00220   2.09222
   A28        2.08514  -0.00327   0.00313  -0.01951  -0.01653   2.06861
   A29        2.09855   0.00174  -0.00141   0.00979   0.00846   2.10701
   A30        2.09950   0.00153  -0.00173   0.00971   0.00806   2.10756
   A31        2.10257   0.00166  -0.00277   0.00868   0.00589   2.10845
   A32        2.09049   0.00029   0.00132   0.00011   0.00145   2.09194
   A33        2.09013  -0.00195   0.00144  -0.00879  -0.00733   2.08280
   A34        2.10675   0.00874  -0.00418   0.03416   0.03011   2.13686
   A35        2.10590  -0.00505  -0.00389  -0.00597  -0.00993   2.09597
   A36        2.07054  -0.00369   0.00808  -0.02819  -0.02018   2.05036
    D1        0.00000  -0.00000  -0.00000  -0.00000  -0.00000   0.00000
    D2        3.14159  -0.00000  -0.00000  -0.00000  -0.00000   3.14159
    D3       -3.14159  -0.00000  -0.00000  -0.00000  -0.00000  -3.14159
    D4       -0.00000  -0.00000  -0.00000   0.00000   0.00000  -0.00000
    D5       -0.00000   0.00000   0.00000   0.00000   0.00000  -0.00000
    D6        3.14159   0.00000   0.00000   0.00000   0.00000   3.14159
    D7        3.14159  -0.00000  -0.00000   0.00000   0.00000   3.14159
    D8       -0.00000  -0.00000   0.00000  -0.00000  -0.00000  -0.00000
    D9       -0.00000  -0.00000   0.00000  -0.00000  -0.00000  -0.00000
   D10        3.14159  -0.00000   0.00000  -0.00000  -0.00000   3.14159
   D11        3.14159  -0.00000   0.00000  -0.00000  -0.00000   3.14159
   D12       -0.00000  -0.00000   0.00000  -0.00000  -0.00000  -0.00000
   D13        0.00000  -0.00000   0.00000  -0.00000  -0.00000   0.00000
   D14        3.14159   0.00000   0.00000   0.00000   0.00000   3.14159
   D15       -3.14159  -0.00000   0.00000  -0.00000  -0.00000  -3.14159
   D16        0.00000  -0.00000   0.00000  -0.00000  -0.00000   0.00000
   D17       -0.00000   0.00000   0.00000   0.00000   0.00000  -0.00000
   D18        3.14159   0.00000  -0.00000   0.00000   0.00000   3.14159
   D19        3.14159   0.00000   0.00000   0.00000   0.00000   3.14159
   D20        0.00000  -0.00000  -0.00000  -0.00000  -0.00000   0.00000
   D21        0.00000  -0.00000  -0.00000  -0.00000  -0.00000   0.00000
   D22       -3.14159  -0.00000  -0.00000  -0.00000  -0.00000  -3.14159
   D23       -3.14159  -0.00000   0.00000  -0.00000  -0.00000  -3.14159
   D24        0.00000  -0.00000  -0.00000  -0.00000  -0.00000   0.00000
   D25       -0.00000   0.00000  -0.00000   0.00000   0.00000  -0.00000
   D26        3.14159   0.00000  -0.00000   0.00000   0.00000   3.14159
   D27        3.14159   0.00000   0.00000   0.00000   0.00000   3.14159
   D28       -0.00000   0.00000  -0.00000   0.00000   0.00000  -0.00000
   D29        3.14159  -0.00000  -0.00000   0.00000   0.00000  -3.14159
   D30        0.00000  -0.00000  -0.00000  -0.00000  -0.00000   0.00000
   D31        0.00000  -0.00000  -0.00000  -0.00000  -0.00000   0.00000
   D32       -3.14159  -0.00000   0.00000  -0.00000  -0.00000  -3.14159
   D33       -3.14159  -0.00000  -0.00000  -0.00000  -0.00000  -3.14159
   D34        0.00000  -0.00000   0.00000  -0.00000  -0.00000  -0.00000
   D35       -0.00000   0.00000   0.00000   0.00000   0.00000  -0.00000
   D36        3.14159   0.00000   0.00000   0.00000   0.00000   3.14159
   D37       -0.00000  -0.00000   0.00000   0.00000   0.00000  -0.00000
   D38        3.14159  -0.00000   0.00000  -0.00000  -0.00000   3.14159
   D39        3.14159   0.00000  -0.00000   0.00000   0.00000   3.14159
   D40       -0.00000   0.00000  -0.00000   0.00000   0.00000  -0.00000
   D41       -0.00000   0.00000   0.00000   0.00000   0.00000   0.00000
   D42       -3.14159  -0.00000   0.00000  -0.00000  -0.00000  -3.14159
   D43        3.14159   0.00000   0.00000   0.00000   0.00000  -3.14159
   D44        0.00000  -0.00000   0.00000  -0.00000  -0.00000   0.00000
   D45        0.00000   0.00000  -0.00000   0.00000   0.00000   0.00000
   D46       -3.14159  -0.00000  -0.00000  -0.00000  -0.00000  -3.14159
   D47        3.14159   0.00000  -0.00000   0.00000   0.00000   3.14159
   D48        0.00000  -0.00000  -0.00000  -0.00000  -0.00000   0.00000
   D49        0.00000  -0.00000  -0.00000  -0.00000  -0.00000  -0.00000
   D50       -3.14159  -0.00000  -0.00000  -0.00000  -0.00000  -3.14159
   D51        3.14159   0.00000  -0.00000   0.00000   0.00000   3.14159
   D52       -0.00000   0.00000  -0.00000   0.00000   0.00000  -0.00000
         Item               Value     Threshold  Converged?
 Maximum Force            0.063487     0.000450     NO 
 RMS     Force            0.011933     0.000300     NO 
 Maximum Displacement     0.555942     0.001800     NO 
 RMS     Displacement     0.138000     0.001200     NO 
 Predicted change in Energy=-8.097875D-03
 GradGradGradGradGradGradGradGradGradGradGradGradGradGradGradGradGradGrad

                          Input orientation:                          
 ---------------------------------------------------------------------
 Center     Atomic      Atomic             Coordinates (Angstroms)
 Number     Number       Type             X           Y           Z
 ---------------------------------------------------------------------
      1          6           0       -1.641634   -0.760180    0.033246
      2          6           0       -0.296093   -0.709855   -0.400597
      3          6           0        0.463413    0.451273   -0.432749
      4          6           0       -0.079848    1.653003   -0.028074
      5          6           0       -1.391270    1.672797    0.407695
      6          6           0       -2.179699    0.503845    0.447907
      7          6           0       -2.392304   -2.133062    0.022719
      8          6           0       -1.758430   -3.323992   -0.409785
      9          6           0       -2.409603   -4.554541   -0.426360
     10          6           0       -3.729816   -4.661471   -0.011488
     11          6           0       -4.383187   -3.517177    0.418681
     12          6           0       -3.729289   -2.283865    0.434878
     13          1           0        0.197360   -1.598088   -0.729983
     14          1           0        1.487321    0.416216   -0.776663
     15          1           0        0.499153    2.564303   -0.047678
     16          1           0       -0.742709   -3.329740   -0.745501
     17          1           0       -1.879000   -5.433209   -0.766195
     18          1           0       -4.237137   -5.616396   -0.023690
     19          1           0       -5.411790   -3.575704    0.746573
     20          1           0       -4.281907   -1.438761    0.775662
     21         17           0       -3.813695    0.758029    1.033971
     22         17           0       -2.037447    3.223937    0.911896
 ---------------------------------------------------------------------
                    Distance matrix (angstroms):
                    1          2          3          4          5
     1  C    0.000000
     2  C    1.414649   0.000000
     3  C    2.473053   1.387841   0.000000
     4  C    2.875133   2.401799   1.379511   0.000000
     5  C    2.474322   2.744044   2.374514   1.382069   0.000000
     6  C    1.434997   2.396038   2.786460   2.440594   1.410562
     7  C    1.564744   2.568816   3.878319   4.436702   3.954091
[...]
     10          6           0        4.267720   -0.353128   -0.002620
     11          6           0        3.439473   -0.869758   -0.998544
     12          6           0        2.085041   -0.549548   -1.020759
     13          1           0        0.601217    2.766241   -0.351208
     14          1           0       -1.749614    3.547538   -0.434985
     15          1           0       -3.603469    1.900215   -0.238466
     16          1           0        1.965677    1.469287    1.704285
     17          1           0        4.369197    0.894213    1.748842
     18          1           0        5.321569   -0.606845    0.015276
     19          1           0        3.848848   -1.522483   -1.761357
     20          1           0        1.448733   -0.952398   -1.799875
     21         17           0       -0.622647   -1.912373    0.297537
     22         17           0       -3.623343   -0.886678    0.121443
 ---------------------------------------------------------------------
 Rotational constants (GHZ):           1.1508089           0.3414661           0.2824962

 **********************************************************************

            Population analysis using the SCF Density.

 **********************************************************************

 Orbital symmetries:
       Occupied  (A) (A) (A) (A) (A) (A) (A) (A) (A) (A) (A) (A)
                 (A) (A) (A) (A) (A) (A) (A) (A) (A) (A) (A) (A)
                 (A) (A) (A) (A) (A) (A) (A) (A) (A) (A) (A) (A)
                 (A) (A) (A) (A) (A) (A) (A) (A) (A) (A) (A) (A)
                 (A) (A) (A) (A) (A) (A) (A) (A) (A)
       Virtual   (A) (A) (A) (A) (A) (A) (A) (A) (A) (A) (A) (A)
                 (A) (A) (A) (A) (A) (A) (A) (A) (A) (A) (A) (A)
                 (A) (A) (A) (A) (A) (A) (A) (A) (A) (A) (A) (A)
                 (A) (A) (A) (A) (A) (A) (A) (A) (A) (A) (A) (A)
                 (A) (A) (A) (A) (A) (A) (A) (A) (A) (A) (A) (A)
                 (A) (A) (A) (A) (A) (A) (A) (A) (A) (A) (A) (A)
                 (A) (A) (A) (A) (A) (A) (A) (A) (A) (A) (A) (A)
                 (A) (A) (A) (A) (A) (A) (A) (A) (A) (A) (A) (A)
                 (A) (A) (A) (A) (A) (A) (A) (A) (A) (A) (A) (A)
                 (A) (A) (A) (A) (A) (A) (A) (A) (A) (A) (A) (A)
                 (A) (A) (A) (A) (A) (A) (A) (A) (A) (A) (A) (A)
                 (A) (A) (A) (A) (A) (A) (A) (A) (A) (A) (A) (A)
                 (A) (A) (A) (A) (A) (A) (A) (A) (A) (A) (A) (A)
                 (A) (A) (A) (A) (A) (A) (A) (A) (A) (A) (A) (A)
                 (A) (A) (A) (A) (A) (A) (A) (A) (A) (A) (A) (A)
                 (A) (A) (A) (A) (A) (A) (A) (A) (A) (A) (A) (A)
                 (A) (A) (A) (A) (A) (A) (A) (A) (A) (A) (A) (A)
                 (A) (A) (A) (A) (A) (A) (A) (A) (A) (A) (A) (A)
                 (A) (A) (A) (A) (A) (A) (A) (A) (A) (A) (A) (A)
                 (A) (A) (A) (A) (A) (A) (A) (A) (A) (A) (A) (A)
                 (A) (A) (A) (A) (A) (A) (A) (A) (A) (A) (A) (A)
                 (A) (A) (A) (A) (A) (A) (A) (A) (A) (A) (A) (A)
                 (A) (A) (A) (A) (A) (A) (A) (A) (A) (A) (A) (A)
                 (A) (A) (A) (A) (A) (A) (A) (A) (A) (A) (A) (A)
                 (A) (A) (A) (A) (A) (A) (A) (A) (A) (A) (A) (A)
                 (A) (A) (A) (A) (A) (A) (A) (A) (A) (A) (A) (A)
                 (A) (A)
 The electronic state is 1-A.
 Alpha  occ. eigenvalues -- -101.56244-101.56063 -10.25738 -10.25618 -10.21457
 Alpha  occ. eigenvalues --  -10.20139 -10.19960 -10.19801 -10.19654 -10.18654
 Alpha  occ. eigenvalues --  -10.18567 -10.18528 -10.18478 -10.18430  -9.47706
 Alpha  occ. eigenvalues --   -9.47544  -7.24184  -7.24022  -7.23191  -7.23132
 Alpha  occ. eigenvalues --   -7.23034  -7.22956  -0.92617  -0.87754  -0.86177
 Alpha  occ. eigenvalues --   -0.84987  -0.79064  -0.75928  -0.74378  -0.73926
 Alpha  occ. eigenvalues --   -0.64808  -0.62534  -0.61064  -0.59687  -0.54190
 Alpha  occ. eigenvalues --   -0.51856  -0.50416  -0.48146  -0.46740  -0.46194
 Alpha  occ. eigenvalues --   -0.44854  -0.44011  -0.43467  -0.42289  -0.39828
 Alpha  occ. eigenvalues --   -0.39157  -0.37688  -0.36167  -0.35919  -0.35219
 Alpha  occ. eigenvalues --   -0.34457  -0.33378  -0.31287  -0.28088  -0.26646
 Alpha  occ. eigenvalues --   -0.25899  -0.25247
 Alpha virt. eigenvalues --   -0.04828  -0.03869  -0.02270  -0.01545  -0.01361
 Alpha virt. eigenvalues --   -0.00288   0.00878   0.01933   0.02550   0.02837
 Alpha virt. eigenvalues --    0.03172   0.04108   0.04446   0.04818   0.05515
 Alpha virt. eigenvalues --    0.06034   0.06626   0.07215   0.07549   0.08647
 Alpha virt. eigenvalues --    0.08768   0.09502   0.09768   0.10103   0.10855
 Alpha virt. eigenvalues --    0.11173   0.11415   0.12023   0.12282   0.13063
 Alpha virt. eigenvalues --    0.13617   0.13997   0.14489   0.14634   0.15006
 Alpha virt. eigenvalues --    0.15411   0.15550   0.16502   0.16590   0.17288
 Alpha virt. eigenvalues --    0.17499   0.18505   0.18764   0.19003   0.19275
 Alpha virt. eigenvalues --    0.19379   0.19762   0.20013   0.20366   0.20480
 Alpha virt. eigenvalues --    0.20860   0.21361   0.21976   0.22256   0.22879
 Alpha virt. eigenvalues --    0.23628   0.23753   0.24091   0.24303   0.24874
 Alpha virt. eigenvalues --    0.25296   0.25359   0.26458   0.26581   0.27243
 Alpha virt. eigenvalues --    0.27690   0.28412   0.28768   0.29162   0.29364
 Alpha virt. eigenvalues --    0.29978   0.30609   0.31123   0.31505   0.31998
 Alpha virt. eigenvalues --    0.32543   0.34057   0.35299   0.35750   0.36497
 Alpha virt. eigenvalues --    0.42811   0.44056   0.44843   0.45781   0.46877
 Alpha virt. eigenvalues --    0.47685   0.49546   0.50197   0.50678   0.51629
 Alpha virt. eigenvalues --    0.52661   0.52734   0.53714   0.53877   0.54340
 Alpha virt. eigenvalues --    0.55940   0.56550   0.57489   0.57903   0.58435
 Alpha virt. eigenvalues --    0.59076   0.60163   0.60703   0.62221   0.62312
 Alpha virt. eigenvalues --    0.63430   0.64262   0.64908   0.65403   0.66496
 Alpha virt. eigenvalues --    0.68219   0.68846   0.69099   0.69614   0.69891
 Alpha virt. eigenvalues --    0.70069   0.71480   0.71856   0.72478   0.72749
 Alpha virt. eigenvalues --    0.74163   0.74846   0.77190   0.79498   0.81226
 Alpha virt. eigenvalues --    0.81892   0.82036   0.82416   0.82972   0.83256
 Alpha virt. eigenvalues --    0.84530   0.85306   0.85636   0.86007   0.86375
 Alpha virt. eigenvalues --    0.87119   0.88324   0.89807   0.90511   0.91381
 Alpha virt. eigenvalues --    0.92955   0.93615   0.94728   0.95882   0.97297
 Alpha virt. eigenvalues --    0.97960   0.98357   0.99843   1.01169   1.01326
 Alpha virt. eigenvalues --    1.01910   1.04521   1.05358   1.06229   1.07682
 Alpha virt. eigenvalues --    1.08354   1.10768   1.13001   1.14152   1.14762
 Alpha virt. eigenvalues --    1.17175   1.21824   1.25996   1.26488   1.29646
 Alpha virt. eigenvalues --    1.30707   1.32567   1.35064   1.35531   1.37605
 Alpha virt. eigenvalues --    1.43737   1.48237   1.49301   1.50231   1.50605
 Alpha virt. eigenvalues --    1.52150   1.53374   1.55002   1.56586   1.57177
 Alpha virt. eigenvalues --    1.57783   1.59287   1.60941   1.63687   1.64981
 Alpha virt. eigenvalues --    1.65247   1.66576   1.68886   1.70745   1.72398
 Alpha virt. eigenvalues --    1.74031   1.74859   1.76226   1.77324   1.80148
 Alpha virt. eigenvalues --    1.81962   1.82728   1.85180   1.88281   1.89759
 Alpha virt. eigenvalues --    1.89995   1.90111   1.91582   1.92810   1.94428
 Alpha virt. eigenvalues --    1.94914   1.95374   1.96218   1.96887   1.98745
 Alpha virt. eigenvalues --    2.00162   2.01166   2.03700   2.05356   2.08232
 Alpha virt. eigenvalues --    2.09180   2.12412   2.19810   2.20535   2.25680
 Alpha virt. eigenvalues --    2.25942   2.29862   2.30280   2.31117   2.33467
 Alpha virt. eigenvalues --    2.36465   2.38896   2.39726   2.39979   2.41308
 Alpha virt. eigenvalues --    2.42508   2.43970   2.46318   2.48700   2.52624
 Alpha virt. eigenvalues --    2.54478   2.60540   2.63018   2.63465   2.65555
 Alpha virt. eigenvalues --    2.67442   2.68623   2.69108   2.69259   2.71866
 Alpha virt. eigenvalues --    2.72543   2.74460   2.75348   2.75746   2.77360
 Alpha virt. eigenvalues --    2.77786   2.78616   2.80042   2.80904   2.81131
 Alpha virt. eigenvalues --    2.81725   2.85282   2.86218   2.86624   2.89523
 Alpha virt. eigenvalues --    2.92731   2.93407   2.99609   3.01342   3.08032
 Alpha virt. eigenvalues --    3.09747   3.14403   3.16830   3.18754   3.22289
 Alpha virt. eigenvalues --    3.22644   3.34872   3.36259   3.37762   3.39482
 Alpha virt. eigenvalues --    3.49246   3.51551   3.53056   3.60078   3.63178
 Alpha virt. eigenvalues --    3.72033   3.77691   3.95047   3.98014   4.03306
 Alpha virt. eigenvalues --    4.05038   4.10285   4.14291   4.14934   4.39402
 Alpha virt. eigenvalues --    4.81925   4.84799   9.77521   9.82425  23.44973
 Alpha virt. eigenvalues --   23.66259  23.89165  23.89878  23.94178  23.95491
 Alpha virt. eigenvalues --   24.00343  24.04031  24.08840  24.09038  24.15656
 Alpha virt. eigenvalues --   24.19020  25.81205  25.92211  26.15267  26.26089
 Alpha virt. eigenvalues --   26.55781  26.81071 215.76713 215.82420
          Condensed to atoms (all electrons):
               1          2          3          4          5          6
     1  C   29.080583  -3.357223  -1.724292  -4.379213  -4.451000  -0.719717
     2  C   -3.357223  27.123789  -0.679796   2.720743  -8.718897  -6.818163
     3  C   -1.724292  -0.679796   8.381861   1.655797  -0.708675  -2.174972
     4  C   -4.379213   2.720743   1.655797  16.398873  -2.277508  -6.521493
     5  C   -4.451000  -8.718897  -0.708675  -2.277508  27.144480  -7.881780
     6  C   -0.719717  -6.818163  -2.174972  -6.521493  -7.881780  38.711767
     7  C   -7.797620  -3.923179   0.954390  -1.912705   4.658694 -11.182513
     8  C   -1.653141   0.105839   0.104289   0.003385   0.194349   0.179323
     9  C   -0.471914   0.187284   0.105569  -0.048533   0.152298  -0.342478
    10  C   -0.633675  -0.314185  -0.013057  -0.000207   0.019385   0.337611
    11  C    1.068692   0.469588   0.006720   0.003931   0.036180  -0.626015
    12  C   -0.432366  -1.164398  -0.064230   0.006914  -0.324070   2.686570
    13  H   -0.033283   0.310010  -0.024237  -0.028324   0.027181  -0.054779
    14  H    0.003797  -0.002799   0.384756  -0.005949  -0.014350  -0.021707
    15  H    0.065987  -0.076155  -0.015265   0.231894   0.132682  -0.004202
    16  H    0.010862   0.055094  -0.009913   0.006626  -0.002094  -0.000984
    17  H    0.015112  -0.002308  -0.000428   0.000120  -0.000893   0.002326
    18  H    0.011239  -0.000260  -0.000104   0.000018  -0.000080  -0.000697
    19  H    0.010505   0.000095  -0.000667   0.000240   0.000172   0.003773
    20  H    0.027968  -0.041163  -0.005884   0.005030   0.000210   0.124135
    21  Cl   0.702297   0.652499   0.087266   0.821530  -0.872801   0.176762
    22  Cl  -0.190068   0.088795   0.058760  -0.165769  -1.320189   1.046560
               7          8          9         10         11         12
     1  C   -7.797620  -1.653141  -0.471914  -0.633675   1.068692  -0.432366
     2  C   -3.923179   0.105839   0.187284  -0.314185   0.469588  -1.164398
     3  C    0.954390   0.104289   0.105569  -0.013057   0.006720  -0.064230
     4  C   -1.912705   0.003385  -0.048533  -0.000207   0.003931   0.006914
     5  C    4.658694   0.194349   0.152298   0.019385   0.036180  -0.324070
     6  C  -11.182513   0.179323  -0.342478   0.337611  -0.626015   2.686570
     7  C   35.559809  -0.875691  -0.232654  -1.877598  -0.653967  -4.830614
     8  C   -0.875691  16.130977   0.491742   0.584773  -2.226317  -6.679750
     9  C   -0.232654   0.491742   7.409463   0.060313   0.795688  -2.062191
    10  C   -1.877598   0.584773   0.060313   6.813067  -0.677949   1.546209
    11  C   -0.653967  -2.226317   0.795688  -0.677949   9.178389  -1.539249
    12  C   -4.830614  -6.679750  -2.062191   1.546209  -1.539249  19.092873
    13  H    0.103521   0.087487   0.000020   0.005960  -0.011577  -0.033920
    14  H    0.005516  -0.000483  -0.000319   0.000044  -0.000219  -0.000289
    15  H    0.017370  -0.000304   0.000069  -0.000016   0.000008  -0.001106
    16  H   -0.006642   0.370466  -0.055586  -0.003368  -0.010785   0.000005
    17  H    0.005880  -0.017523   0.351054   0.007391  -0.021058   0.008207
    18  H    0.032675  -0.041555   0.019317   0.347484   0.024192  -0.042198
    19  H    0.016084   0.000100  -0.014039  -0.003631   0.357716  -0.022381
    20  H   -0.121115   0.033822  -0.023759   0.012793  -0.072677   0.407786
    21  Cl  -3.204958  -0.247207  -0.087440  -0.073088   0.205339   0.283091
    22  Cl  -0.034357  -0.007185   0.004812  -0.001852   0.007627   0.007403
              13         14         15         16         17         18
     1  C   -0.033283   0.003797   0.065987   0.010862   0.015112   0.011239
     2  C    0.310010  -0.002799  -0.076155   0.055094  -0.002308  -0.000260
     3  C   -0.024237   0.384756  -0.015265  -0.009913  -0.000428  -0.000104
     4  C   -0.028324  -0.005949   0.231894   0.006626   0.000120   0.000018
     5  C    0.027181  -0.014350   0.132682  -0.002094  -0.000893  -0.000080
     6  C   -0.054779  -0.021707  -0.004202  -0.000984   0.002326  -0.000697
     7  C    0.103521   0.005516   0.017370  -0.006642   0.005880   0.032675
     8  C    0.087487  -0.000483  -0.000304   0.370466  -0.017523  -0.041555
     9  C    0.000020  -0.000319   0.000069  -0.055586   0.351054   0.019317
    10  C    0.005960   0.000044  -0.000016  -0.003368   0.007391   0.347484
    11  C   -0.011577  -0.000219   0.000008  -0.010785  -0.021058   0.024192
    12  C   -0.033920  -0.000289  -0.001106   0.000005   0.008207  -0.042198
    13  H    0.528158  -0.007056  -0.000229  -0.000186   0.000008  -0.000002
    14  H   -0.007056   0.529531  -0.007629   0.000019   0.000000  -0.000000
    15  H   -0.000229  -0.007629   0.512058  -0.000000  -0.000000  -0.000000
    16  H   -0.000186   0.000019  -0.000000   0.534806  -0.007811  -0.000254
    17  H    0.000008   0.000000  -0.000000  -0.007811   0.540171  -0.007981
    18  H   -0.000002  -0.000000  -0.000000  -0.000254  -0.007981   0.537967
    19  H    0.000004   0.000000  -0.000000   0.000082  -0.000259  -0.007905
    20  H   -0.000021   0.000003  -0.000001  -0.000269   0.000081  -0.000246
    21  Cl  -0.003834   0.001146  -0.002229  -0.003305  -0.000033   0.000166
    22  Cl   0.000527  -0.000377  -0.005270  -0.000108  -0.000000   0.000000
              19         20         21         22
     1  C    0.010505   0.027968   0.702297  -0.190068
     2  C    0.000095  -0.041163   0.652499   0.088795
     3  C   -0.000667  -0.005884   0.087266   0.058760
     4  C    0.000240   0.005030   0.821530  -0.165769
     5  C    0.000172   0.000210  -0.872801  -1.320189
     6  C    0.003773   0.124135   0.176762   1.046560
     7  C    0.016084  -0.121115  -3.204958  -0.034357
     8  C    0.000100   0.033822  -0.247207  -0.007185
     9  C   -0.014039  -0.023759  -0.087440   0.004812
    10  C   -0.003631   0.012793  -0.073088  -0.001852
    11  C    0.357716  -0.072677   0.205339   0.007627
    12  C   -0.022381   0.407786   0.283091   0.007403
    13  H    0.000004  -0.000021  -0.003834   0.000527
    14  H    0.000000   0.000003   0.001146  -0.000377
    15  H   -0.000000  -0.000001  -0.002229  -0.005270
    16  H    0.000082  -0.000269  -0.003305  -0.000108
    17  H   -0.000259   0.000081  -0.000033  -0.000000
    18  H   -0.007905  -0.000246   0.000166   0.000000
    19  H    0.539561  -0.007595  -0.000454  -0.000006
    20  H   -0.007595   0.527003   0.004015   0.000012
    21  Cl  -0.000454   0.004015  18.133353  -0.174756
    22  Cl  -0.000006   0.000012  -0.174756  17.265297
 Mulliken charges:
               1
     1  C    0.846470
     2  C   -0.615211
     3  C   -0.317887
     4  C   -0.515402
     5  C    0.206707
     6  C   -0.919327
     7  C    1.299672
     8  C   -0.537397
     9  C   -0.238716
    10  C   -0.136404
    11  C   -0.314259
    12  C   -0.842298
    13  H    0.134572
    14  H    0.136366
    15  H    0.152338
    16  H    0.123344
    17  H    0.127943
    18  H    0.128224
    19  H    0.128606
    20  H    0.129873
    21  Cl   0.602641
    22  Cl   0.420145
 Sum of Mulliken charges =  -0.00000
 Mulliken charges with hydrogens summed into heavy atoms:
               1
     1  C    0.846470
     2  C   -0.480639
     3  C   -0.181521
     4  C   -0.363064
     5  C    0.206707
     6  C   -0.919327
     7  C    1.299672
     8  C   -0.414053
     9  C   -0.110773
    10  C   -0.008179
    11  C   -0.185653
    12  C   -0.712426
    21  Cl   0.602641
    22  Cl   0.420145
 Electronic spatial extent (au):  <R**2>=           3713.4012
 Charge=             -0.0000 electrons
 Dipole moment (field-independent basis, Debye):
    X=              1.3618    Y=              2.2079    Z=             -0.3581  Tot=              2.6187
 Quadrupole moment (field-independent basis, Debye-Ang):
   XX=            -89.5581   YY=            -90.7143   ZZ=            -95.4604
   XY=             -5.2586   XZ=              1.3082   YZ=              2.7554
 Traceless Quadrupole moment (field-independent basis, Debye-Ang):
   XX=              2.3529   YY=              1.1966   ZZ=             -3.5495
   XY=             -5.2586   XZ=              1.3082   YZ=              2.7554
 Octapole moment (field-independent basis, Debye-Ang**2):
  XXX=             14.5385  YYY=              2.5403  ZZZ=              3.2190  XYY=            -16.1453
  XXY=             -0.6261  XXZ=              4.5379  XZZ=              1.9101  YZZ=             -8.4053
  YYZ=             -2.7829  XYZ=             12.5432
 Hexadecapole moment (field-independent basis, Debye-Ang**3):
 XXXX=          -3513.9072 YYYY=           -988.2149 ZZZZ=           -300.7303 XXXY=            -54.6594
 XXXZ=             30.2192 YYYX=             -4.4419 YYYZ=            -15.1830 ZZZX=             -1.1022
 ZZZY=             15.9081 XXYY=           -778.7976 XXZZ=           -672.4457 YYZZ=           -231.2440
 XXYZ=             32.2491 YYXZ=             -0.8812 ZZXY=             10.8573
 N-N= 9.959477816190D+02 E-N=-5.251676363679D+03  KE= 1.378410343307D+03
 1\1\GINC-DAMODAR\FOpt\RB3LYP\6-311+G(d,p)\C12H8Cl2\PKC\14-Mar-2022\0\\
 # opt b3lyp/6-311+g(d,p) scf=xqc\\Title Card Required\\0,1\C,-1.633700
 7826,-0.795612271,0.0178298746\C,-0.5978290315,-0.6296258781,-0.910109
 2363\C,0.1167198054,0.5596160327,-0.9957932108\C,-0.1899850738,1.61716
 13806,-0.1486128146\C,-1.209338708,1.4736963766,0.7883557182\C,-1.9301
 233675,0.2759903701,0.8794566044\C,-2.3647731489,-2.0950991797,0.05235
 08229\C,-1.6670023749,-3.2795568044,0.31677624\C,-2.3239300005,-4.5086
 870028,0.3050849138\C,-3.6860672809,-4.5703505538,0.0203437335\C,-4.38
 79210299,-3.396208815,-0.2508694955\C,-3.7339360277,-2.1676038137,-0.2
 322270298\H,-0.3711330062,-1.4492750135,-1.5813192104\H,0.9092675303,0
 .6681076184,-1.7266252063\H,0.3513661244,2.5527594272,-0.201533141\H,-
 0.6079964411,-3.2348601627,0.5457627418\H,-1.7707896827,-5.4158907484,
 0.5208929298\H,-4.1980343591,-5.525890123,0.0092091809\H,-5.447035382,
 -3.4366047468,-0.4792689821\H,-4.2856435692,-1.2600995559,-0.447291501
 9\Cl,-3.168069498,0.1017064604,2.1037514922\Cl,-1.5516557354,2.8236884
 927,1.8482976866\\Version=EM64L-G16RevB.01\State=1-A\HF=-1382.6583654\
 RMSD=6.051e-09\RMSF=7.497e-06\Dipole=0.4111153,-0.5691066,-0.7540618\Q
 uadrupole=3.1069225,1.0587424,-4.1656649,2.436624,-1.6256751,-1.786749
 1\PG=C01 [X(C12H8Cl2)]\\@


 SILVERMAN'S PARADOX - IF MURPHY'S LAW CAN GO WRONG, IT WILL.
 Job cpu time:       0 days 10 hours  3 minutes 43.8 seconds.
 Elapsed time:       0 days  3 hours 20 minutes 47.7 seconds.
 File lengths (MBytes):  RWF=     93 Int=      0 D2E=      0 Chk=     14 Scr=      1
 Normal termination of Gaussian 16 at Mon Mar 14 20:23:15 2022.
