 Entering Gaussian System, Link 0=g16
 Input=2,3prime,4prime-Trichlorobiphenyl.gjf
 Output=2,3prime,4prime-Trichlorobiphenyl.log
 Initial command:
 /usr/local/g16/l1.exe "/scratch/pkc/Gau-20833.inp" -scrdir="/scratch/pkc/"
 Entering Link 1 = /usr/local/g16/l1.exe PID=     20834.
  
 Copyright (c) 1988-2017, Gaussian, Inc.  All Rights Reserved.
  
 This is part of the Gaussian(R) 16 program.  It is based on
 the Gaussian(R) 09 system (copyright 2009, Gaussian, Inc.),
 the Gaussian(R) 03 system (copyright 2003, Gaussian, Inc.),
 the Gaussian(R) 98 system (copyright 1998, Gaussian, Inc.),
 the Gaussian(R) 94 system (copyright 1995, Gaussian, Inc.),
 the Gaussian 92(TM) system (copyright 1992, Gaussian, Inc.),
 the Gaussian 90(TM) system (copyright 1990, Gaussian, Inc.),
 the Gaussian 88(TM) system (copyright 1988, Gaussian, Inc.),
 the Gaussian 86(TM) system (copyright 1986, Carnegie Mellon
 University), and the Gaussian 82(TM) system (copyright 1983,
 Carnegie Mellon University). Gaussian is a federally registered
 trademark of Gaussian, Inc.
  
 This software contains proprietary and confidential information,
 including trade secrets, belonging to Gaussian, Inc.
  
 This software is provided under written license and may be
 used, copied, transmitted, or stored only in accord with that
 written license.
  
 The following legend is applicable only to US Government
 contracts under FAR:
  
                    RESTRICTED RIGHTS LEGEND
  
 Use, reproduction and disclosure by the US Government is
 subject to restrictions as set forth in subparagraphs (a)
 and (c) of the Commercial Computer Software - Restricted
 Rights clause in FAR 52.227-19.
  
 Gaussian, Inc.
 340 Quinnipiac St., Bldg. 40, Wallingford CT 06492
  
  
 ---------------------------------------------------------------
 Warning -- This program may not be used in any manner that
 competes with the business of Gaussian, Inc. or will provide
 assistance to any competitor of Gaussian, Inc.  The licensee
 of this program is prohibited from giving any competitor of
 Gaussian, Inc. access to this program.  By using this program,
 the user acknowledges that Gaussian, Inc. is engaged in the
 business of creating and licensing software in the field of
 computational chemistry and represents and warrants to the
 licensee that it is not a competitor of Gaussian, Inc. and that
 it will not use this program in any manner prohibited above.
 ---------------------------------------------------------------
  

 Cite this work as:
 Gaussian 16, Revision B.01,
 M. J. Frisch, G. W. Trucks, H. B. Schlegel, G. E. Scuseria, 
 M. A. Robb, J. R. Cheeseman, G. Scalmani, V. Barone, 
 G. A. Petersson, H. Nakatsuji, X. Li, M. Caricato, A. V. Marenich, 
 J. Bloino, B. G. Janesko, R. Gomperts, B. Mennucci, H. P. Hratchian, 
 J. V. Ortiz, A. F. Izmaylov, J. L. Sonnenberg, D. Williams-Young, 
 F. Ding, F. Lipparini, F. Egidi, J. Goings, B. Peng, A. Petrone, 
 T. Henderson, D. Ranasinghe, V. G. Zakrzewski, J. Gao, N. Rega, 
 G. Zheng, W. Liang, M. Hada, M. Ehara, K. Toyota, R. Fukuda, 
 J. Hasegawa, M. Ishida, T. Nakajima, Y. Honda, O. Kitao, H. Nakai, 
 T. Vreven, K. Throssell, J. A. Montgomery, Jr., J. E. Peralta, 
 F. Ogliaro, M. J. Bearpark, J. J. Heyd, E. N. Brothers, K. N. Kudin, 
 V. N. Staroverov, T. A. Keith, R. Kobayashi, J. Normand, 
 K. Raghavachari, A. P. Rendell, J. C. Burant, S. S. Iyengar, 
 J. Tomasi, M. Cossi, J. M. Millam, M. Klene, C. Adamo, R. Cammi, 
 J. W. Ochterski, R. L. Martin, K. Morokuma, O. Farkas, 
 J. B. Foresman, and D. J. Fox, Gaussian, Inc., Wallingford CT, 2016.
 
 ******************************************
 Gaussian 16:  EM64L-G16RevB.01 20-Dec-2017
                15-Mar-2022 
 ******************************************
 %mem=10GB
 %nprocshared=4
 Will use up to    4 processors via shared memory.
 --------------------------------
 # opt b3lyp/6-311+g(d,p) scf=xqc
 --------------------------------
 1/18=20,19=15,26=3,38=1/1,3;
 2/9=110,12=2,17=6,18=5,40=1/2;
 3/5=4,6=6,7=111,11=2,25=1,30=1,71=1,74=-5/1,2,3;
 4//1;
 5/5=2,8=3,13=1,38=5/2,8;
 6/7=2,8=2,9=2,10=2,28=1/1;
 7//1,2,3,16;
 1/18=20,19=15,26=3/3(2);
 2/9=110/2;
 99//99;
 2/9=110/2;
 3/5=4,6=6,7=111,11=2,25=1,30=1,71=1,74=-5/1,2,3;
 4/5=5,16=3,69=1/1;
 5/5=2,8=3,13=1,38=5/2,8;
 7//1,2,3,16;
 1/18=20,19=15,26=3/3(-5);
 2/9=110/2;
 6/7=2,8=2,9=2,10=2,19=2,28=1/1;
 99/9=1/99;
 -------------------
 Title Card Required
 -------------------
 Symbolic Z-matrix:
 Charge =  0 Multiplicity = 1
 C                    -2.58779  -1.93368  -0.20919 
 C                    -1.25541  -1.9038   -0.64253 
 C                    -0.54752  -0.69434  -0.64861 
 C                    -1.17201   0.48522  -0.22133 
 C                    -2.50439   0.45534   0.21201 
 C                    -3.21228  -0.75412   0.21808 
 C                    -3.3657   -3.26275  -0.20251 
 C                    -2.74121  -4.44231  -0.62979 
 C                    -3.4491   -5.65176  -0.62371 
 C                    -4.78148  -5.68165  -0.19037 
 C                    -5.40597  -4.50209   0.23691 
 C                    -4.69808  -3.29263   0.23084 
 H                     0.46978  -0.67153  -0.97948 
 H                    -0.63151   1.40866  -0.22597 
 H                    -2.9812    1.35596   0.53824 
 H                    -4.22958  -0.77693   0.54895 
 H                    -1.72391  -4.41949  -0.96066 
 H                    -6.42327  -4.52491   0.56779 
 H                    -5.17489  -2.39201   0.55707 
 Cl                   -0.47113  -3.3852   -1.17914 
 Cl                   -2.66482  -7.13317  -1.16032 
 Cl                   -5.67052  -7.20059  -0.18273 
 

 GradGradGradGradGradGradGradGradGradGradGradGradGradGradGradGradGradGrad
 Berny optimization.
 Initialization pass.
                           ----------------------------
                           !    Initial Parameters    !
                           ! (Angstroms and Degrees)  !
 --------------------------                            --------------------------
 ! Name  Definition              Value          Derivative Info.                !
 --------------------------------------------------------------------------------
 ! R1    R(1,2)                  1.4014         estimate D2E/DX2                !
 ! R2    R(1,6)                  1.4014         estimate D2E/DX2                !
 ! R3    R(1,7)                  1.54           estimate D2E/DX2                !
 ! R4    R(2,3)                  1.4014         estimate D2E/DX2                !
 ! R5    R(2,20)                 1.76           estimate D2E/DX2                !
 ! R6    R(3,4)                  1.4014         estimate D2E/DX2                !
 ! R7    R(3,13)                 1.07           estimate D2E/DX2                !
 ! R8    R(4,5)                  1.4014         estimate D2E/DX2                !
 ! R9    R(4,14)                 1.07           estimate D2E/DX2                !
 ! R10   R(5,6)                  1.4014         estimate D2E/DX2                !
 ! R11   R(5,15)                 1.07           estimate D2E/DX2                !
 ! R12   R(6,16)                 1.07           estimate D2E/DX2                !
 ! R13   R(7,8)                  1.4014         estimate D2E/DX2                !
 ! R14   R(7,12)                 1.4014         estimate D2E/DX2                !
 ! R15   R(8,9)                  1.4014         estimate D2E/DX2                !
 ! R16   R(8,17)                 1.07           estimate D2E/DX2                !
 ! R17   R(9,10)                 1.4014         estimate D2E/DX2                !
 ! R18   R(9,21)                 1.76           estimate D2E/DX2                !
 ! R19   R(10,11)                1.4014         estimate D2E/DX2                !
 ! R20   R(10,22)                1.76           estimate D2E/DX2                !
 ! R21   R(11,12)                1.4014         estimate D2E/DX2                !
 ! R22   R(11,18)                1.07           estimate D2E/DX2                !
 ! R23   R(12,19)                1.07           estimate D2E/DX2                !
 ! A1    A(2,1,6)              120.0            estimate D2E/DX2                !
 ! A2    A(2,1,7)              120.0            estimate D2E/DX2                !
 ! A3    A(6,1,7)              120.0            estimate D2E/DX2                !
 ! A4    A(1,2,3)              120.0            estimate D2E/DX2                !
 ! A5    A(1,2,20)             120.0            estimate D2E/DX2                !
 ! A6    A(3,2,20)             120.0            estimate D2E/DX2                !
 ! A7    A(2,3,4)              120.0            estimate D2E/DX2                !
 ! A8    A(2,3,13)             120.0            estimate D2E/DX2                !
 ! A9    A(4,3,13)             120.0            estimate D2E/DX2                !
 ! A10   A(3,4,5)              120.0            estimate D2E/DX2                !
 ! A11   A(3,4,14)             120.0            estimate D2E/DX2                !
 ! A12   A(5,4,14)             120.0            estimate D2E/DX2                !
 ! A13   A(4,5,6)              120.0            estimate D2E/DX2                !
 ! A14   A(4,5,15)             120.0            estimate D2E/DX2                !
 ! A15   A(6,5,15)             120.0            estimate D2E/DX2                !
 ! A16   A(1,6,5)              120.0            estimate D2E/DX2                !
 ! A17   A(1,6,16)             120.0            estimate D2E/DX2                !
 ! A18   A(5,6,16)             120.0            estimate D2E/DX2                !
 ! A19   A(1,7,8)              120.0            estimate D2E/DX2                !
 ! A20   A(1,7,12)             120.0            estimate D2E/DX2                !
 ! A21   A(8,7,12)             120.0            estimate D2E/DX2                !
 ! A22   A(7,8,9)              120.0            estimate D2E/DX2                !
 ! A23   A(7,8,17)             120.0            estimate D2E/DX2                !
 ! A24   A(9,8,17)             120.0            estimate D2E/DX2                !
 ! A25   A(8,9,10)             120.0            estimate D2E/DX2                !
 ! A26   A(8,9,21)             120.0            estimate D2E/DX2                !
 ! A27   A(10,9,21)            120.0            estimate D2E/DX2                !
 ! A28   A(9,10,11)            120.0            estimate D2E/DX2                !
 ! A29   A(9,10,22)            120.0            estimate D2E/DX2                !
 ! A30   A(11,10,22)           120.0            estimate D2E/DX2                !
 ! A31   A(10,11,12)           120.0            estimate D2E/DX2                !
 ! A32   A(10,11,18)           120.0            estimate D2E/DX2                !
 ! A33   A(12,11,18)           120.0            estimate D2E/DX2                !
 ! A34   A(7,12,11)            120.0            estimate D2E/DX2                !
 ! A35   A(7,12,19)            120.0            estimate D2E/DX2                !
 ! A36   A(11,12,19)           120.0            estimate D2E/DX2                !
 ! D1    D(6,1,2,3)              0.0001         estimate D2E/DX2                !
 ! D2    D(6,1,2,20)           180.0            estimate D2E/DX2                !
 ! D3    D(7,1,2,3)           -180.0            estimate D2E/DX2                !
 ! D4    D(7,1,2,20)            -0.0001         estimate D2E/DX2                !
 ! D5    D(2,1,6,5)             -0.0001         estimate D2E/DX2                !
 ! D6    D(2,1,6,16)           180.0            estimate D2E/DX2                !
 ! D7    D(7,1,6,5)            180.0            estimate D2E/DX2                !
 ! D8    D(7,1,6,16)             0.0            estimate D2E/DX2                !
 ! D9    D(2,1,7,8)             -0.0001         estimate D2E/DX2                !
 ! D10   D(2,1,7,12)           179.9998         estimate D2E/DX2                !
 ! D11   D(6,1,7,8)            179.9999         estimate D2E/DX2                !
 ! D12   D(6,1,7,12)            -0.0002         estimate D2E/DX2                !
 ! D13   D(1,2,3,4)              0.0            estimate D2E/DX2                !
 ! D14   D(1,2,3,13)           180.0            estimate D2E/DX2                !
 ! D15   D(20,2,3,4)          -179.9999         estimate D2E/DX2                !
 ! D16   D(20,2,3,13)            0.0001         estimate D2E/DX2                !
 ! D17   D(2,3,4,5)             -0.0001         estimate D2E/DX2                !
 ! D18   D(2,3,4,14)           180.0            estimate D2E/DX2                !
 ! D19   D(13,3,4,5)           179.9999         estimate D2E/DX2                !
 ! D20   D(13,3,4,14)            0.0            estimate D2E/DX2                !
 ! D21   D(3,4,5,6)              0.0001         estimate D2E/DX2                !
 ! D22   D(3,4,5,15)          -179.9999         estimate D2E/DX2                !
 ! D23   D(14,4,5,6)          -180.0            estimate D2E/DX2                !
 ! D24   D(14,4,5,15)            0.0            estimate D2E/DX2                !
 ! D25   D(4,5,6,1)              0.0            estimate D2E/DX2                !
 ! D26   D(4,5,6,16)           179.9999         estimate D2E/DX2                !
 ! D27   D(15,5,6,1)           180.0            estimate D2E/DX2                !
 ! D28   D(15,5,6,16)           -0.0001         estimate D2E/DX2                !
 ! D29   D(1,7,8,9)            179.9999         estimate D2E/DX2                !
 ! D30   D(1,7,8,17)             0.0001         estimate D2E/DX2                !
 ! D31   D(12,7,8,9)             0.0001         estimate D2E/DX2                !
 ! D32   D(12,7,8,17)         -179.9998         estimate D2E/DX2                !
 ! D33   D(1,7,12,11)         -179.9999         estimate D2E/DX2                !
 ! D34   D(1,7,12,19)            0.0            estimate D2E/DX2                !
 ! D35   D(8,7,12,11)           -0.0001         estimate D2E/DX2                !
 ! D36   D(8,7,12,19)          179.9999         estimate D2E/DX2                !
 ! D37   D(7,8,9,10)             0.0            estimate D2E/DX2                !
 ! D38   D(7,8,9,21)           180.0            estimate D2E/DX2                !
 ! D39   D(17,8,9,10)          179.9998         estimate D2E/DX2                !
 ! D40   D(17,8,9,21)           -0.0002         estimate D2E/DX2                !
 ! D41   D(8,9,10,11)            0.0            estimate D2E/DX2                !
 ! D42   D(8,9,10,22)         -179.9999         estimate D2E/DX2                !
 ! D43   D(21,9,10,11)         180.0            estimate D2E/DX2                !
 ! D44   D(21,9,10,22)           0.0001         estimate D2E/DX2                !
 ! D45   D(9,10,11,12)           0.0            estimate D2E/DX2                !
 ! D46   D(9,10,11,18)        -179.9998         estimate D2E/DX2                !
 ! D47   D(22,10,11,12)        179.9999         estimate D2E/DX2                !
 ! D48   D(22,10,11,18)          0.0001         estimate D2E/DX2                !
 ! D49   D(10,11,12,7)           0.0            estimate D2E/DX2                !
 ! D50   D(10,11,12,19)       -179.9999         estimate D2E/DX2                !
 ! D51   D(18,11,12,7)         179.9999         estimate D2E/DX2                !
 ! D52   D(18,11,12,19)         -0.0001         estimate D2E/DX2                !
 --------------------------------------------------------------------------------
 Trust Radius=3.00D-01 FncErr=1.00D-07 GrdErr=1.00D-06 EigMax=2.50D+02 EigMin=1.00D-04
 Number of steps in this run=    121 maximum allowed number of steps=    132.
 GradGradGradGradGradGradGradGradGradGradGradGradGradGradGradGradGradGrad

                          Input orientation:                          
 ---------------------------------------------------------------------
 Center     Atomic      Atomic             Coordinates (Angstroms)
 Number     Number       Type             X           Y           Z
 ---------------------------------------------------------------------
      1          6           0       -2.587793   -1.933681   -0.209188
      2          6           0       -1.255412   -1.903795   -0.642535
      3          6           0       -0.547519   -0.694344   -0.648607
      4          6           0       -1.172006    0.485221   -0.221332
      5          6           0       -2.504388    0.455335    0.212013
      6          6           0       -3.212281   -0.754116    0.218085
      7          6           0       -3.365698   -3.262748   -0.202514
      8          6           0       -2.741211   -4.442313   -0.629789
      9          6           0       -3.449104   -5.651765   -0.623715
     10          6           0       -4.781484   -5.681651   -0.190365
     11          6           0       -5.405971   -4.502086    0.236910
     12          6           0       -4.698078   -3.292635    0.230836
     13          1           0        0.469784   -0.671526   -0.979476
     14          1           0       -0.631513    1.408663   -0.225968
     15          1           0       -2.981198    1.355960    0.538244
     16          1           0       -4.229584   -0.776934    0.548954
     17          1           0       -1.723908   -4.419495   -0.960659
     18          1           0       -6.423272   -4.524906    0.567785
     19          1           0       -5.174888   -2.392011    0.557072
     20         17           0       -0.471126   -3.385196   -1.179140
     21         17           0       -2.664819   -7.133165   -1.160324
     22         17           0       -5.670517   -7.200586   -0.182734
 ---------------------------------------------------------------------
                    Distance matrix (angstroms):
                    1          2          3          4          5
     1  C    0.000000
     2  C    1.401400   0.000000
     3  C    2.427296   1.401400   0.000000
     4  C    2.802800   2.427296   1.401400   0.000000
     5  C    2.427296   2.802800   2.427296   1.401400   0.000000
     6  C    1.401400   2.427296   2.802800   2.427296   1.401400
     7  C    1.540000   2.548270   3.838989   4.342800   3.838989
     8  C    2.548270   2.941400   4.342800   5.187469   4.975106
     9  C    3.838989   4.342800   5.744200   6.558176   6.235992
    10  C    4.342800   5.187469   6.558176   7.145600   6.558176
    11  C    3.838989   4.975106   6.235992   6.558176   5.744200
    12  C    2.548270   3.813607   4.975106   5.187469   4.342800
    13  H    3.396345   2.146700   1.070000   2.146700   3.396345
    14  H    3.872800   3.396345   2.146700   1.070000   2.146700
    15  H    3.396345   3.872800   3.396345   2.146700   1.070000
    16  H    2.146700   3.396345   3.872800   3.396345   2.146700
    17  H    2.736837   2.578650   3.918930   4.990735   5.074276
    18  H    4.693509   5.919617   7.118798   7.300676   6.347206
    19  H    2.736837   4.127917   5.074276   4.990735   3.918930
    20  Cl   2.743718   1.760000   2.743718   4.048303   4.562800
    21  Cl   5.286324   5.440665   6.797295   7.819846   7.713260
    22  Cl   6.102800   6.910901   8.294174   8.905600   8.294174
                    6          7          8          9         10
     6  C    0.000000
     7  C    2.548270   0.000000
     8  C    3.813607   1.401400   0.000000
     9  C    4.975106   2.427296   1.401400   0.000000
    10  C    5.187469   2.802800   2.427296   1.401400   0.000000
    11  C    4.342800   2.427296   2.802800   2.427296   1.401400
    12  C    2.941400   1.401400   2.427296   2.802800   2.427296
    13  H    3.872800   4.693509   4.965039   6.347206   7.300676
    14  H    3.396345   5.412800   6.232802   7.612271   8.215600
    15  H    2.146700   4.693509   5.919617   7.118798   7.300676
    16  H    1.070000   2.736837   4.127917   5.074276   4.990735
    17  H    4.127917   2.146700   1.070000   2.146700   3.396345
    18  H    4.965039   3.396345   3.872800   3.396345   2.146700
    19  H    2.578650   2.146700   3.396345   3.872800   3.396345
    20  Cl   4.048303   3.057342   2.563702   3.783409   4.983028
    21  Cl   6.549198   4.048303   2.743718   1.760000   2.743718
    22  Cl   6.910901   4.562800   4.048303   2.743718   1.760000
                   11         12         13         14         15
    11  C    0.000000
    12  C    1.401400   0.000000
    13  H    7.118798   5.919617   0.000000
    14  H    7.612271   6.232802   2.471400   0.000000
    15  H    6.347206   4.965039   4.280590   2.471400   0.000000
    16  H    3.918930   2.578650   4.942800   4.280590   2.471400
    17  H    3.872800   3.396345   4.342800   5.974992   6.097816
    18  H    1.070000   2.146700   8.047159   8.329571   6.814200
    19  H    2.146700   1.070000   6.097816   5.974992   4.342800
    20  Cl   5.254079   4.456874   2.879094   4.890332   5.632800
    21  Cl   4.048303   4.562800   7.184095   8.830073   8.663168
    22  Cl   2.743718   4.048303   8.998151   9.975600   8.998151
                   16         17         18         19         20
    16  H    0.000000
    17  H    4.671787   0.000000
    18  H    4.342800   4.942800   0.000000
    19  H    1.871400   4.280590   2.471400   0.000000
    20  Cl   4.890332   1.639199   6.307038   5.111382   0.000000
    21  Cl   6.765486   2.879094   4.890332   5.632800   4.342800
    22  Cl   6.623817   4.890332   2.879094   4.890332   6.525618
                   21         22
    21  Cl   0.000000
    22  Cl   3.161400   0.000000
 Stoichiometry    C12H7Cl3
 Framework group  C1[X(C12H7Cl3)]
 Deg. of freedom    60
 Full point group                 C1      NOp   1
 Largest Abelian subgroup         C1      NOp   1
 Largest concise Abelian subgroup C1      NOp   1
                         Standard orientation:                         
 ---------------------------------------------------------------------
 Center     Atomic      Atomic             Coordinates (Angstroms)
 Number     Number       Type             X           Y           Z
 ---------------------------------------------------------------------
      1          6           0        1.865367   -0.567049    0.000002
      2          6           0        2.488432    0.688224   -0.000000
      3          6           0        3.887063    0.776272   -0.000002
      4          6           0        4.662630   -0.390955   -0.000002
      5          6           0        4.039565   -1.646229    0.000002
      6          6           0        2.640934   -1.734276    0.000003
      7          6           0        0.328410   -0.663804    0.000002
      8          6           0       -0.447157    0.503422    0.000003
      9          6           0       -1.845788    0.415375    0.000002
     10          6           0       -2.468853   -0.839898    0.000000
     11          6           0       -1.693286   -2.007125   -0.000001
     12          6           0       -0.294655   -1.919078   -0.000000
     13          1           0        4.362787    1.734701   -0.000003
     14          1           0        5.730516   -0.323729   -0.000004
     15          1           0        4.631728   -2.537433    0.000004
     16          1           0        2.165210   -2.692705    0.000005
     17          1           0        0.028567    1.461852    0.000001
     18          1           0       -2.169010   -2.965555   -0.000005
     19          1           0        0.297507   -2.810282   -0.000002
     20         17           0        1.514408    2.154129   -0.000003
     21         17           0       -2.819812    1.881280    0.000003
     22         17           0       -4.225376   -0.950476   -0.000003
 ---------------------------------------------------------------------
 Rotational constants (GHZ):           0.9161711           0.2458774           0.1938523
 Standard basis: 6-311+G(d,p) (5D, 7F)
 There are   411 symmetry adapted cartesian basis functions of A   symmetry.
 There are   396 symmetry adapted basis functions of A   symmetry.
   396 basis functions,   647 primitive gaussians,   411 cartesian basis functions
    65 alpha electrons       65 beta electrons
       nuclear repulsion energy      1209.6370357104 Hartrees.
 NAtoms=   22 NActive=   22 NUniq=   22 SFac= 1.00D+00 NAtFMM=   60 NAOKFM=F Big=F
 Integral buffers will be    131072 words long.
 Raffenetti 2 integral format.
 Two-electron integral symmetry is turned on.
 One-electron integrals computed using PRISM.
 NBasis=   396 RedAO= T EigKep=  1.30D-06  NBF=   396
 NBsUse=   391 1.00D-06 EigRej=  8.57D-07 NBFU=   391
 ExpMin= 4.38D-02 ExpMax= 1.06D+05 ExpMxC= 3.62D+03 IAcc=3 IRadAn=         5 AccDes= 0.00D+00
 Harris functional with IExCor=  402 and IRadAn=       5 diagonalized for initial guess.
 HarFok:  IExCor=  402 AccDes= 0.00D+00 IRadAn=         5 IDoV= 1 UseB2=F ITyADJ=14
 ICtDFT=  3500011 ScaDFX=  1.000000  1.000000  1.000000  1.000000
 FoFCou: FMM=F IPFlag=           0 FMFlag=      100000 FMFlg1=           0
         NFxFlg=           0 DoJE=T BraDBF=F KetDBF=T FulRan=T
         wScrn=  0.000000 ICntrl=       500 IOpCl=  0 I1Cent=   200000004 NGrid=           0
         NMat0=    1 NMatS0=      1 NMatT0=    0 NMatD0=    1 NMtDS0=    0 NMtDT0=    0
 Petite list used in FoFCou.
 Requested convergence on RMS density matrix=1.00D-08 within  32 cycles.
 Requested convergence on MAX density matrix=1.00D-06.
 Requested convergence on             energy=1.00D-06.
 No special actions if energy rises.
 SCF Done:  E(RB3LYP) =  -1842.22177829     A.U. after   16 cycles
            NFock= 16  Conv=0.57D-08     -V/T= 2.0028
 QCSCF skips out because SCF is already converged.

 **********************************************************************

            Population analysis using the SCF Density.

 **********************************************************************

 Orbital symmetries:
       Occupied  (A) (A) (A) (A) (A) (A) (A) (A) (A) (A) (A) (A)
                 (A) (A) (A) (A) (A) (A) (A) (A) (A) (A) (A) (A)
                 (A) (A) (A) (A) (A) (A) (A) (A) (A) (A) (A) (A)
                 (A) (A) (A) (A) (A) (A) (A) (A) (A) (A) (A) (A)
                 (A) (A) (A) (A) (A) (A) (A) (A) (A) (A) (A) (A)
                 (A) (A) (A) (A) (A)
       Virtual   (A) (A) (A) (A) (A) (A) (A) (A) (A) (A) (A) (A)
                 (A) (A) (A) (A) (A) (A) (A) (A) (A) (A) (A) (A)
                 (A) (A) (A) (A) (A) (A) (A) (A) (A) (A) (A) (A)
                 (A) (A) (A) (A) (A) (A) (A) (A) (A) (A) (A) (A)
                 (A) (A) (A) (A) (A) (A) (A) (A) (A) (A) (A) (A)
                 (A) (A) (A) (A) (A) (A) (A) (A) (A) (A) (A) (A)
                 (A) (A) (A) (A) (A) (A) (A) (A) (A) (A) (A) (A)
                 (A) (A) (A) (A) (A) (A) (A) (A) (A) (A) (A) (A)
                 (A) (A) (A) (A) (A) (A) (A) (A) (A) (A) (A) (A)
                 (A) (A) (A) (A) (A) (A) (A) (A) (A) (A) (A) (A)
                 (A) (A) (A) (A) (A) (A) (A) (A) (A) (A) (A) (A)
                 (A) (A) (A) (A) (A) (A) (A) (A) (A) (A) (A) (A)
                 (A) (A) (A) (A) (A) (A) (A) (A) (A) (A) (A) (A)
                 (A) (A) (A) (A) (A) (A) (A) (A) (A) (A) (A) (A)
                 (A) (A) (A) (A) (A) (A) (A) (A) (A) (A) (A) (A)
                 (A) (A) (A) (A) (A) (A) (A) (A) (A) (A) (A) (A)
                 (A) (A) (A) (A) (A) (A) (A) (A) (A) (A) (A) (A)
                 (A) (A) (A) (A) (A) (A) (A) (A) (A) (A) (A) (A)
                 (A) (A) (A) (A) (A) (A) (A) (A) (A) (A) (A) (A)
                 (A) (A) (A) (A) (A) (A) (A) (A) (A) (A) (A) (A)
                 (A) (A) (A) (A) (A) (A) (A) (A) (A) (A) (A) (A)
                 (A) (A) (A) (A) (A) (A) (A) (A) (A) (A) (A) (A)
                 (A) (A) (A) (A) (A) (A) (A) (A) (A) (A) (A) (A)
                 (A) (A) (A) (A) (A) (A) (A) (A) (A) (A) (A) (A)
                 (A) (A) (A) (A) (A) (A) (A) (A) (A) (A) (A) (A)
                 (A) (A) (A) (A) (A) (A) (A) (A) (A) (A) (A) (A)
                 (A) (A) (A) (A) (A) (A) (A) (A) (A) (A) (A) (A)
                 (A) (A)
 The electronic state is 1-A.
 Alpha  occ. eigenvalues -- -101.57233-101.55997-101.55924 -10.26092 -10.25487
 Alpha  occ. eigenvalues --  -10.25254 -10.22283 -10.21413 -10.20757 -10.20374
 Alpha  occ. eigenvalues --  -10.20366 -10.20249 -10.20125 -10.19932 -10.17985
 Alpha  occ. eigenvalues --   -9.49025  -9.47438  -9.47368  -7.25417  -7.24478
 Alpha  occ. eigenvalues --   -7.24469  -7.23914  -7.23842  -7.22927  -7.22867
 Alpha  occ. eigenvalues --   -7.22855  -7.22798  -0.92891  -0.91398  -0.86726
 Alpha  occ. eigenvalues --   -0.85819  -0.85035  -0.79023  -0.76358  -0.75884
 Alpha  occ. eigenvalues --   -0.73362  -0.65263  -0.63957  -0.62511  -0.59949
 Alpha  occ. eigenvalues --   -0.54859  -0.53083  -0.51041  -0.49553  -0.48592
 Alpha  occ. eigenvalues --   -0.47187  -0.45553  -0.45144  -0.44782  -0.43237
 Alpha  occ. eigenvalues --   -0.41387  -0.40818  -0.40019  -0.38226  -0.37727
 Alpha  occ. eigenvalues --   -0.36214  -0.35003  -0.34835  -0.33580  -0.31004
 Alpha  occ. eigenvalues --   -0.29493  -0.28671  -0.27394  -0.26489  -0.24439
 Alpha virt. eigenvalues --   -0.06532  -0.04871  -0.03274  -0.01371  -0.01130
 Alpha virt. eigenvalues --   -0.00435  -0.00407   0.00738   0.01702   0.02653
 Alpha virt. eigenvalues --    0.03308   0.03349   0.04476   0.04501   0.05294
 Alpha virt. eigenvalues --    0.06155   0.06371   0.06806   0.06892   0.07533
 Alpha virt. eigenvalues --    0.08297   0.08473   0.08884   0.09382   0.09972
 Alpha virt. eigenvalues --    0.10535   0.11206   0.11793   0.11984   0.12061
 Alpha virt. eigenvalues --    0.12694   0.13074   0.13223   0.14327   0.14711
 Alpha virt. eigenvalues --    0.14964   0.15487   0.15514   0.16050   0.16239
 Alpha virt. eigenvalues --    0.16328   0.17019   0.17597   0.17788   0.18365
 Alpha virt. eigenvalues --    0.18964   0.19249   0.19749   0.19856   0.19928
 Alpha virt. eigenvalues --    0.20413   0.20881   0.21553   0.21791   0.21894
 Alpha virt. eigenvalues --    0.22154   0.22846   0.23284   0.23540   0.23938
 Alpha virt. eigenvalues --    0.24816   0.25458   0.26212   0.26747   0.27072
 Alpha virt. eigenvalues --    0.27670   0.28098   0.28633   0.29046   0.29409
 Alpha virt. eigenvalues --    0.29931   0.30746   0.32780   0.33089   0.33326
 Alpha virt. eigenvalues --    0.34032   0.34778   0.36004   0.37344   0.38098
 Alpha virt. eigenvalues --    0.41353   0.42516   0.43753   0.43945   0.44788
 Alpha virt. eigenvalues --    0.45462   0.46665   0.46872   0.48149   0.48825
 Alpha virt. eigenvalues --    0.49624   0.50359   0.51245   0.51581   0.52489
 Alpha virt. eigenvalues --    0.53192   0.53611   0.53714   0.54300   0.55659
 Alpha virt. eigenvalues --    0.56548   0.57292   0.57440   0.58802   0.59125
 Alpha virt. eigenvalues --    0.59676   0.61373   0.61434   0.62178   0.62975
 Alpha virt. eigenvalues --    0.64218   0.65024   0.65630   0.66481   0.67329
 Alpha virt. eigenvalues --    0.67465   0.68275   0.68686   0.68964   0.70444
 Alpha virt. eigenvalues --    0.72602   0.75223   0.76799   0.78168   0.79543
 Alpha virt. eigenvalues --    0.80265   0.80775   0.81627   0.82162   0.82984
 Alpha virt. eigenvalues --    0.84379   0.84497   0.85397   0.86032   0.86340
 Alpha virt. eigenvalues --    0.86967   0.87005   0.88465   0.88697   0.89270
 Alpha virt. eigenvalues --    0.89707   0.90570   0.91873   0.92799   0.93595
 Alpha virt. eigenvalues --    0.93974   0.94495   0.95678   0.96123   0.96732
 Alpha virt. eigenvalues --    0.97133   0.97426   0.99071   0.99719   1.00768
 Alpha virt. eigenvalues --    1.01743   1.02293   1.06113   1.06665   1.08168
 Alpha virt. eigenvalues --    1.08664   1.09053   1.10243   1.11436   1.12512
 Alpha virt. eigenvalues --    1.13399   1.19675   1.22446   1.25105   1.26230
 Alpha virt. eigenvalues --    1.26380   1.27208   1.28637   1.28987   1.32247
 Alpha virt. eigenvalues --    1.35174   1.36279   1.38834   1.44626   1.45970
 Alpha virt. eigenvalues --    1.46931   1.48724   1.50453   1.52878   1.53513
 Alpha virt. eigenvalues --    1.54315   1.54708   1.56001   1.56997   1.59960
 Alpha virt. eigenvalues --    1.61996   1.63018   1.65643   1.67335   1.68022
 Alpha virt. eigenvalues --    1.69325   1.73008   1.73149   1.73360   1.75422
 Alpha virt. eigenvalues --    1.79359   1.81777   1.83028   1.85064   1.85395
 Alpha virt. eigenvalues --    1.86313   1.88297   1.88633   1.89958   1.93713
 Alpha virt. eigenvalues --    1.94024   1.94254   1.94867   1.95089   1.97455
 Alpha virt. eigenvalues --    1.98201   2.00446   2.01614   2.04486   2.04977
 Alpha virt. eigenvalues --    2.06147   2.08172   2.14785   2.18309   2.21270
 Alpha virt. eigenvalues --    2.23576   2.24884   2.26209   2.26335   2.27179
 Alpha virt. eigenvalues --    2.29769   2.29963   2.33643   2.34385   2.35839
 Alpha virt. eigenvalues --    2.36875   2.40398   2.42638   2.43720   2.44922
 Alpha virt. eigenvalues --    2.49892   2.50926   2.53003   2.55212   2.58310
 Alpha virt. eigenvalues --    2.60445   2.61726   2.61936   2.63748   2.64227
 Alpha virt. eigenvalues --    2.67976   2.69744   2.71361   2.72265   2.72990
 Alpha virt. eigenvalues --    2.73594   2.74435   2.75673   2.76574   2.79229
 Alpha virt. eigenvalues --    2.79766   2.81485   2.81731   2.83627   2.84474
 Alpha virt. eigenvalues --    2.85767   2.86649   2.91525   2.93604   2.96208
 Alpha virt. eigenvalues --    3.05838   3.06995   3.08805   3.10806   3.14801
 Alpha virt. eigenvalues --    3.17172   3.20094   3.23004   3.24638   3.32347
 Alpha virt. eigenvalues --    3.37147   3.37311   3.41723   3.50925   3.53636
 Alpha virt. eigenvalues --    3.54929   3.59172   3.68932   3.73014   3.85362
 Alpha virt. eigenvalues --    3.89142   4.03299   4.07451   4.10022   4.16330
 Alpha virt. eigenvalues --    4.20298   4.46773   4.80289   4.83767   9.75790
 Alpha virt. eigenvalues --    9.80807   9.88035  23.44361  23.58494  23.85774
 Alpha virt. eigenvalues --   23.89628  23.90468  23.92315  23.99237  24.01496
 Alpha virt. eigenvalues --   24.04906  24.06104  24.13053  24.13925  25.78624
 Alpha virt. eigenvalues --   25.84065  25.87912  26.11928  26.16342  26.51978
 Alpha virt. eigenvalues --   26.64633  26.76198  26.78339 215.74726 215.80427
 Alpha virt. eigenvalues --  215.90483
          Condensed to atoms (all electrons):
               1          2          3          4          5          6
     1  C   11.062312  -0.589814   0.469318  -1.568963   1.067948  -3.620282
     2  C   -0.589814  20.935363 -10.064612  -1.115594  -0.776090  -0.239339
     3  C    0.469318 -10.064612  20.221482  -0.297376   3.359803  -4.311343
     4  C   -1.568963  -1.115594  -0.297376   8.028549  -0.855376   2.126131
     5  C    1.067948  -0.776090   3.359803  -0.855376  12.322803  -5.869285
     6  C   -3.620282  -0.239339  -4.311343   2.126131  -5.869285  18.447460
     7  C    3.754465  -0.050190  -4.246215  -0.527366  -0.966449  -0.411414
     8  C    0.096816   1.746567   1.031339  -0.216376   0.821594  -4.006140
     9  C   -1.249289   0.241846   2.115844  -0.123538   0.119846  -2.047427
    10  C   -0.783433  -0.207160   0.295638   0.044105  -0.279411   0.368657
    11  C   -0.962627  -0.692238  -0.392642   0.047388  -0.298778   0.566957
    12  C   -2.119175  -2.329019  -1.715525   0.417545  -2.501972   4.201747
    13  H    0.048069   0.045440   0.332585  -0.038071  -0.039238   0.007485
    14  H    0.016364   0.020809  -0.047903   0.389194  -0.023810  -0.010631
    15  H    0.023919  -0.002519  -0.035967   0.019590   0.322666   0.004833
    16  H    0.020317  -0.045711  -0.021731   0.005610  -0.166782   0.410622
    17  H   -0.040142   0.058197   0.204473   0.023262  -0.004286   0.000799
    18  H    0.002960   0.001473   0.000045   0.000231  -0.000743   0.008111
    19  H    0.067179   0.024525   0.009502  -0.005516   0.033415  -0.022866
    20  Cl   0.316940  -0.834948  -0.728479  -0.080055   0.051343   0.657425
    21  Cl  -0.229896   0.058255   0.018999  -0.004036  -0.003408  -0.127957
    22  Cl  -0.063639  -0.062512  -0.010426   0.000302  -0.007537  -0.001742
               7          8          9         10         11         12
     1  C    3.754465   0.096816  -1.249289  -0.783433  -0.962627  -2.119175
     2  C   -0.050190   1.746567   0.241846  -0.207160  -0.692238  -2.329019
     3  C   -4.246215   1.031339   2.115844   0.295638  -0.392642  -1.715525
     4  C   -0.527366  -0.216376  -0.123538   0.044105   0.047388   0.417545
     5  C   -0.966449   0.821594   0.119846  -0.279411  -0.298778  -2.501972
     6  C   -0.411414  -4.006140  -2.047427   0.368657   0.566957   4.201747
     7  C   14.917765   0.809047  -3.782894  -1.686754  -1.664139   0.082569
     8  C    0.809047  14.866170   3.226235  -5.137536  -2.292324  -3.191948
     9  C   -3.782894   3.226235  16.946962  -2.723957  -4.554223  -1.831089
    10  C   -1.686754  -5.137536  -2.723957  17.427379   0.902798  -1.704687
    11  C   -1.664139  -2.292324  -4.554223   0.902798  12.116153   3.290673
    12  C    0.082569  -3.191948  -1.831089  -1.704687   3.290673  13.346120
    13  H    0.009600   0.001380  -0.002253  -0.000249   0.000013   0.001432
    14  H    0.002249   0.000934   0.000094   0.000036   0.000098   0.001170
    15  H    0.000504  -0.002920  -0.000486   0.000261   0.002075   0.016876
    16  H    0.025795  -0.000533   0.001139   0.003103   0.012247   0.078986
    17  H   -0.287156   0.304848   0.115899   0.119386  -0.045177  -0.025208
    18  H    0.041943  -0.009641  -0.011746   0.027459   0.352839  -0.057628
    19  H    0.061889   0.013703  -0.016040  -0.031837  -0.122064   0.310052
    20  Cl   0.993117  -1.110026  -0.948848  -0.157617   0.103207   0.317663
    21  Cl  -0.659045   0.312678  -0.883598   0.179859   0.469846   0.172798
    22  Cl  -0.183486   0.179940   1.032465  -1.185897  -0.308014  -0.174600
              13         14         15         16         17         18
     1  C    0.048069   0.016364   0.023919   0.020317  -0.040142   0.002960
     2  C    0.045440   0.020809  -0.002519  -0.045711   0.058197   0.001473
     3  C    0.332585  -0.047903  -0.035967  -0.021731   0.204473   0.000045
     4  C   -0.038071   0.389194   0.019590   0.005610   0.023262   0.000231
     5  C   -0.039238  -0.023810   0.322666  -0.166782  -0.004286  -0.000743
     6  C    0.007485  -0.010631   0.004833   0.410622   0.000799   0.008111
     7  C    0.009600   0.002249   0.000504   0.025795  -0.287156   0.041943
     8  C    0.001380   0.000934  -0.002920  -0.000533   0.304848  -0.009641
     9  C   -0.002253   0.000094  -0.000486   0.001139   0.115899  -0.011746
    10  C   -0.000249   0.000036   0.000261   0.003103   0.119386   0.027459
    11  C    0.000013   0.000098   0.002075   0.012247  -0.045177   0.352839
    12  C    0.001432   0.001170   0.016876   0.078986  -0.025208  -0.057628
    13  H    0.511950  -0.007339  -0.000234   0.000078   0.000002   0.000000
    14  H   -0.007339   0.527766  -0.007296  -0.000287  -0.000004  -0.000000
    15  H   -0.000234  -0.007296   0.532508  -0.006970  -0.000000   0.000000
    16  H    0.000078  -0.000287  -0.006970   0.556380  -0.000091   0.000028
    17  H    0.000002  -0.000004  -0.000000  -0.000091   0.664856   0.000097
    18  H    0.000000  -0.000000   0.000000   0.000028   0.000097   0.512428
    19  H    0.000001  -0.000001  -0.000003   0.001730  -0.000194  -0.007161
    20  Cl  -0.017939   0.002355   0.000560  -0.000590  -0.214055  -0.000086
    21  Cl   0.000000   0.000001  -0.000001   0.000076  -0.028255  -0.000531
    22  Cl  -0.000000   0.000000   0.000001  -0.000015   0.000054  -0.008023
              19         20         21         22
     1  C    0.067179   0.316940  -0.229896  -0.063639
     2  C    0.024525  -0.834948   0.058255  -0.062512
     3  C    0.009502  -0.728479   0.018999  -0.010426
     4  C   -0.005516  -0.080055  -0.004036   0.000302
     5  C    0.033415   0.051343  -0.003408  -0.007537
     6  C   -0.022866   0.657425  -0.127957  -0.001742
     7  C    0.061889   0.993117  -0.659045  -0.183486
     8  C    0.013703  -1.110026   0.312678   0.179940
     9  C   -0.016040  -0.948848  -0.883598   1.032465
    10  C   -0.031837  -0.157617   0.179859  -1.185897
    11  C   -0.122064   0.103207   0.469846  -0.308014
    12  C    0.310052   0.317663   0.172798  -0.174600
    13  H    0.000001  -0.017939   0.000000  -0.000000
    14  H   -0.000001   0.002355   0.000001   0.000000
    15  H   -0.000003   0.000560  -0.000001   0.000001
    16  H    0.001730  -0.000590   0.000076  -0.000015
    17  H   -0.000194  -0.214055  -0.028255   0.000054
    18  H   -0.007161  -0.000086  -0.000531  -0.008023
    19  H    0.561008  -0.000026   0.000608  -0.001179
    20  Cl  -0.000026  18.057855  -0.070394   0.004947
    21  Cl   0.000608  -0.070394  17.526530  -0.217333
    22  Cl  -0.001179   0.004947  -0.217333  17.487605
 Mulliken charges:
               1
     1  C    0.280654
     2  C   -0.122729
     3  C   -0.186808
     4  C   -0.269640
     5  C   -0.306253
     6  C   -0.131801
     7  C   -0.233834
     8  C   -1.443807
     9  C    0.375060
    10  C    0.529857
    11  C   -0.532070
    12  C   -0.586780
    13  H    0.147288
    14  H    0.136199
    15  H    0.132604
    16  H    0.126598
    17  H    0.152694
    18  H    0.147945
    19  H    0.123275
    20  Cl   0.657652
    21  Cl   0.484806
    22  Cl   0.519091
 Sum of Mulliken charges =  -0.00000
 Mulliken charges with hydrogens summed into heavy atoms:
               1
     1  C    0.280654
     2  C   -0.122729
     3  C   -0.039520
     4  C   -0.133441
     5  C   -0.173649
     6  C   -0.005202
     7  C   -0.233834
     8  C   -1.291114
     9  C    0.375060
    10  C    0.529857
    11  C   -0.384125
    12  C   -0.463506
    20  Cl   0.657652
    21  Cl   0.484806
    22  Cl   0.519091
 Electronic spatial extent (au):  <R**2>=           5038.0216
 Charge=             -0.0000 electrons
 Dipole moment (field-independent basis, Debye):
    X=              4.0517    Y=             -2.0895    Z=             -0.0000  Tot=              4.5588
 Quadrupole moment (field-independent basis, Debye-Ang):
   XX=           -102.2086   YY=            -99.6571   ZZ=           -112.6771
   XY=             -1.1600   XZ=              0.0000   YZ=             -0.0000
 Traceless Quadrupole moment (field-independent basis, Debye-Ang):
   XX=              2.6390   YY=              5.1905   ZZ=             -7.8295
   XY=             -1.1600   XZ=              0.0000   YZ=             -0.0000
 Octapole moment (field-independent basis, Debye-Ang**2):
  XXX=             74.9782  YYY=             -8.0249  ZZZ=             -0.0000  XYY=              1.1491
  XXY=             -1.7385  XXZ=             -0.0001  XZZ=            -16.4660  YZZ=              9.6732
  YYZ=             -0.0000  XYZ=             -0.0001
 Hexadecapole moment (field-independent basis, Debye-Ang**3):
 XXXX=          -4823.9633 YYYY=          -1382.3307 ZZZZ=           -132.8058 XXXY=            -26.1489
 XXXZ=             -0.0002 YYYX=            -25.4651 YYYZ=              0.0001 ZZZX=              0.0000
 ZZZY=              0.0000 XXYY=          -1054.5254 XXZZ=           -952.2086 YYZZ=           -285.7122
 XXYZ=             -0.0001 YYXZ=              0.0002 ZZXY=              7.1648
 N-N= 1.209637035710D+03 E-N=-6.771437623862D+03  KE= 1.837151251109D+03
 Calling FoFJK, ICntrl=      2127 FMM=F ISym2X=0 I1Cent= 0 IOpClX= 0 NMat=1 NMatS=1 NMatT=0.
 ***** Axes restored to original set *****
 -------------------------------------------------------------------
 Center     Atomic                   Forces (Hartrees/Bohr)
 Number     Number              X              Y              Z
 -------------------------------------------------------------------
      1        6          -0.018691870   -0.038535822   -0.001079361
      2        6          -0.005331577    0.017854747    0.005109905
      3        6          -0.009381455   -0.001736025    0.002764850
      4        6          -0.009367188   -0.016495461   -0.000012186
      5        6           0.004084400   -0.015702732   -0.004294679
      6        6           0.023144582    0.011726212   -0.005422767
      7        6           0.013038019    0.024431037    0.000293074
      8        6          -0.047028750   -0.031179184    0.009638142
      9        6          -0.006592804    0.007625753    0.003604161
     10        6           0.000432478   -0.002160623   -0.000548189
     11        6           0.015387558    0.005838888   -0.003972806
     12        6           0.001946395   -0.021575203   -0.004693366
     13        1           0.008713213   -0.000808768   -0.003022493
     14        1           0.005750981    0.007338184   -0.000516502
     15        1          -0.004433365    0.008009051    0.002964815
     16        1          -0.005963076    0.001702259    0.002284208
     17        1          -0.038005956   -0.027307687    0.007392382
     18        1          -0.008306540   -0.001737368    0.002410283
     19        1          -0.006818472    0.003125216    0.002833338
     20       17           0.087539765    0.057622054   -0.018018330
     21       17           0.001701477    0.006059852    0.000577549
     22       17          -0.001817814    0.005905620    0.001707970
 -------------------------------------------------------------------
 Cartesian Forces:  Max     0.087539765 RMS     0.018536780

 GradGradGradGradGradGradGradGradGradGradGradGradGradGradGradGradGradGrad
 Berny optimization.
 FormGI is forming the generalized inverse of G from B-inverse, IUseBI=4.
 Internal  Forces:  Max     0.272767859 RMS     0.049620896
 Search for a local minimum.
 Step number   1 out of a maximum of  121
 All quantities printed in internal units (Hartrees-Bohrs-Radians)
 Mixed Optimization -- RFO/linear search
 Second derivative matrix not updated -- first step.
 ITU=  0
     Eigenvalues ---    0.00237   0.01506   0.01506   0.02070   0.02070
     Eigenvalues ---    0.02070   0.02070   0.02070   0.02070   0.02070
     Eigenvalues ---    0.02070   0.02070   0.02070   0.02070   0.02070
     Eigenvalues ---    0.02070   0.02070   0.02070   0.02070   0.16000
     Eigenvalues ---    0.16000   0.16000   0.16000   0.16000   0.16000
     Eigenvalues ---    0.16000   0.22000   0.22375   0.22493   0.23491
     Eigenvalues ---    0.24487   0.24610   0.25000   0.25000   0.25000
     Eigenvalues ---    0.25000   0.25000   0.28519   0.29539   0.29539
     Eigenvalues ---    0.29539   0.37230   0.37230   0.37230   0.37230
     Eigenvalues ---    0.37230   0.37230   0.37230   0.41369   0.41393
     Eigenvalues ---    0.41539   0.41697   0.45389   0.45389   0.45389
     Eigenvalues ---    0.45389   0.45389   0.45389   0.45389   0.45389
 RFO step:  Lambda=-4.08365084D-01 EMin= 2.36824244D-03
 Linear search not attempted -- first point.
 Maximum step size (   0.300) exceeded in Quadratic search.
    -- Step size scaled by   0.383
 Iteration  1 RMS(Cart)=  0.19532330 RMS(Int)=  0.01001633
 Iteration  2 RMS(Cart)=  0.03660849 RMS(Int)=  0.00032751
 Iteration  3 RMS(Cart)=  0.00059948 RMS(Int)=  0.00004667
 Iteration  4 RMS(Cart)=  0.00000022 RMS(Int)=  0.00004667
 Variable       Old X    -DE/DX   Delta X   Delta X   Delta X     New X
                                 (Linear)    (Quad)   (Total)
    R1        2.64826   0.11844   0.00000   0.05386   0.05394   2.70220
    R2        2.64826   0.01954   0.00000   0.00934   0.00944   2.65770
    R3        2.91018   0.06524   0.00000   0.03605   0.03605   2.94623
    R4        2.64826   0.00292   0.00000   0.00186   0.00183   2.65009
    R5        3.32592  -0.00400   0.00000  -0.00218  -0.00218   3.32374
    R6        2.64826  -0.02984   0.00000  -0.01391  -0.01402   2.63425
    R7        2.02201   0.00920   0.00000   0.00452   0.00452   2.02652
    R8        2.64826  -0.03876   0.00000  -0.01844  -0.01852   2.62975
    R9        2.02201   0.00924   0.00000   0.00454   0.00454   2.02654
   R10        2.64826  -0.02199   0.00000  -0.01033  -0.01031   2.63796
   R11        2.02201   0.00962   0.00000   0.00472   0.00472   2.02673
   R12        2.02201   0.00634   0.00000   0.00311   0.00311   2.02512
   R13        2.64826   0.01401   0.00000   0.00657   0.00661   2.65488
   R14        2.64826   0.01665   0.00000   0.00761   0.00765   2.65592
   R15        2.64826  -0.00439   0.00000  -0.00181  -0.00182   2.64644
   R16        2.02201  -0.03900   0.00000  -0.01915  -0.01915   2.00286
   R17        2.64826  -0.01790   0.00000  -0.00817  -0.00821   2.64005
   R18        3.32592  -0.00452   0.00000  -0.00246  -0.00246   3.32346
   R19        2.64826  -0.02696   0.00000  -0.01233  -0.01237   2.63589
   R20        3.32592  -0.00417   0.00000  -0.00227  -0.00227   3.32365
   R21        2.64826  -0.01458   0.00000  -0.00662  -0.00662   2.64165
   R22        2.02201   0.00868   0.00000   0.00426   0.00426   2.02627
   R23        2.02201   0.00653   0.00000   0.00321   0.00321   2.02521
    A1        2.09440  -0.07689   0.00000  -0.04265  -0.04246   2.05193
    A2        2.09440   0.27277   0.00000   0.15775   0.15766   2.25205
    A3        2.09440  -0.19588   0.00000  -0.11510  -0.11520   1.97920
    A4        2.09440  -0.01251   0.00000  -0.00529  -0.00523   2.08916
    A5        2.09440   0.18297   0.00000   0.10553   0.10550   2.19990
    A6        2.09440  -0.17046   0.00000  -0.10024  -0.10027   1.99413
    A7        2.09440   0.03689   0.00000   0.02200   0.02186   2.11626
    A8        2.09440  -0.01948   0.00000  -0.01169  -0.01163   2.08277
    A9        2.09440  -0.01741   0.00000  -0.01030  -0.01024   2.08416
   A10        2.09440  -0.00622   0.00000  -0.00678  -0.00696   2.08743
   A11        2.09440   0.00175   0.00000   0.00247   0.00257   2.09696
   A12        2.09440   0.00447   0.00000   0.00431   0.00440   2.09879
   A13        2.09440   0.00155   0.00000  -0.00191  -0.00196   2.09243
   A14        2.09440  -0.00060   0.00000   0.00107   0.00110   2.09549
   A15        2.09440  -0.00095   0.00000   0.00084   0.00086   2.09526
   A16        2.09440   0.05718   0.00000   0.03463   0.03476   2.12915
   A17        2.09440  -0.02670   0.00000  -0.01604  -0.01611   2.07829
   A18        2.09440  -0.03048   0.00000  -0.01859  -0.01865   2.07574
   A19        2.09440   0.18669   0.00000   0.10846   0.10842   2.20281
   A20        2.09440  -0.12634   0.00000  -0.07379  -0.07383   2.02056
   A21        2.09440  -0.06036   0.00000  -0.03467  -0.03459   2.05981
   A22        2.09440   0.02083   0.00000   0.01309   0.01313   2.10752
   A23        2.09440   0.01678   0.00000   0.01180   0.01178   2.10617
   A24        2.09440  -0.03761   0.00000  -0.02489  -0.02491   2.06949
   A25        2.09440   0.01355   0.00000   0.00752   0.00747   2.10186
   A26        2.09440  -0.01413   0.00000  -0.00804  -0.00801   2.08638
   A27        2.09440   0.00057   0.00000   0.00052   0.00055   2.09494
   A28        2.09440  -0.01426   0.00000  -0.00932  -0.00941   2.08499
   A29        2.09440   0.01522   0.00000   0.00937   0.00942   2.10381
   A30        2.09440  -0.00097   0.00000  -0.00005  -0.00001   2.09438
   A31        2.09440   0.00235   0.00000   0.00047   0.00043   2.09482
   A32        2.09440  -0.00277   0.00000  -0.00131  -0.00129   2.09311
   A33        2.09440   0.00042   0.00000   0.00084   0.00086   2.09526
   A34        2.09440   0.03788   0.00000   0.02292   0.02297   2.11736
   A35        2.09440  -0.01424   0.00000  -0.00829  -0.00831   2.08608
   A36        2.09440  -0.02364   0.00000  -0.01463  -0.01465   2.07974
    D1        0.00000  -0.00000   0.00000  -0.00000  -0.00000   0.00000
    D2        3.14159  -0.00000   0.00000  -0.00000  -0.00000   3.14159
    D3       -3.14159  -0.00000   0.00000  -0.00000  -0.00000  -3.14159
    D4       -0.00000  -0.00000   0.00000  -0.00000  -0.00000  -0.00000
    D5       -0.00000   0.00000   0.00000   0.00000   0.00000  -0.00000
    D6        3.14159   0.00000   0.00000   0.00000   0.00000   3.14159
    D7        3.14159  -0.00000   0.00000  -0.00000  -0.00000   3.14159
    D8        0.00000  -0.00000   0.00000  -0.00000  -0.00000  -0.00000
    D9       -0.00000  -0.00000   0.00000  -0.00000  -0.00000  -0.00000
   D10        3.14159  -0.00000   0.00000  -0.00000  -0.00000   3.14159
   D11        3.14159  -0.00000   0.00000  -0.00000  -0.00000   3.14159
   D12       -0.00000  -0.00000   0.00000  -0.00000  -0.00000  -0.00000
   D13        0.00000  -0.00000   0.00000   0.00000   0.00000   0.00000
   D14        3.14159   0.00000   0.00000   0.00000   0.00000   3.14159
   D15       -3.14159  -0.00000   0.00000  -0.00000  -0.00000  -3.14159
   D16        0.00000  -0.00000   0.00000  -0.00000  -0.00000   0.00000
   D17       -0.00000   0.00000   0.00000   0.00000   0.00000  -0.00000
   D18        3.14159   0.00000   0.00000  -0.00000  -0.00000   3.14159
   D19        3.14159  -0.00000   0.00000  -0.00000  -0.00000   3.14159
   D20        0.00000  -0.00000   0.00000  -0.00000  -0.00000   0.00000
   D21        0.00000  -0.00000   0.00000  -0.00000  -0.00000   0.00000
   D22       -3.14159  -0.00000   0.00000  -0.00000  -0.00000  -3.14159
   D23       -3.14159  -0.00000   0.00000  -0.00000  -0.00000  -3.14159
   D24        0.00000  -0.00000   0.00000  -0.00000  -0.00000   0.00000
   D25       -0.00000   0.00000   0.00000   0.00000   0.00000  -0.00000
   D26        3.14159   0.00000   0.00000   0.00000   0.00000   3.14159
   D27        3.14159   0.00000   0.00000   0.00000   0.00000   3.14159
   D28       -0.00000   0.00000   0.00000   0.00000   0.00000  -0.00000
   D29        3.14159  -0.00000   0.00000   0.00000   0.00000   3.14159
   D30        0.00000  -0.00000   0.00000  -0.00000  -0.00000   0.00000
   D31        0.00000  -0.00000   0.00000  -0.00000  -0.00000   0.00000
   D32       -3.14159  -0.00000   0.00000  -0.00000  -0.00000  -3.14159
   D33       -3.14159  -0.00000   0.00000  -0.00000  -0.00000  -3.14159
   D34        0.00000  -0.00000   0.00000  -0.00000  -0.00000   0.00000
   D35       -0.00000   0.00000   0.00000   0.00000   0.00000  -0.00000
   D36        3.14159   0.00000   0.00000   0.00000   0.00000   3.14159
   D37       -0.00000  -0.00000   0.00000  -0.00000  -0.00000  -0.00000
   D38        3.14159  -0.00000   0.00000  -0.00000  -0.00000   3.14159
   D39        3.14159   0.00000   0.00000   0.00000   0.00000   3.14159
   D40       -0.00000   0.00000   0.00000   0.00000   0.00000  -0.00000
   D41       -0.00000   0.00000   0.00000   0.00000   0.00000  -0.00000
   D42       -3.14159  -0.00000   0.00000  -0.00000  -0.00000  -3.14159
   D43        3.14159   0.00000   0.00000   0.00000   0.00000   3.14159
   D44        0.00000  -0.00000   0.00000  -0.00000  -0.00000   0.00000
   D45        0.00000   0.00000   0.00000  -0.00000  -0.00000   0.00000
   D46       -3.14159  -0.00000   0.00000  -0.00000  -0.00000  -3.14159
   D47        3.14159   0.00000   0.00000   0.00000   0.00000   3.14159
   D48        0.00000  -0.00000   0.00000  -0.00000  -0.00000   0.00000
   D49        0.00000  -0.00000   0.00000  -0.00000  -0.00000   0.00000
   D50       -3.14159  -0.00000   0.00000  -0.00000  -0.00000  -3.14159
   D51        3.14159   0.00000   0.00000   0.00000   0.00000   3.14159
   D52       -0.00000  -0.00000   0.00000   0.00000   0.00000  -0.00000
         Item               Value     Threshold  Converged?
 Maximum Force            0.272768     0.000450     NO 
 RMS     Force            0.049621     0.000300     NO 
 Maximum Displacement     0.986495     0.001800     NO 
 RMS     Displacement     0.227352     0.001200     NO 
 Predicted change in Energy=-1.449044D-01
 GradGradGradGradGradGradGradGradGradGradGradGradGradGradGradGradGradGrad

                          Input orientation:                          
 ---------------------------------------------------------------------
 Center     Atomic      Atomic             Coordinates (Angstroms)
 Number     Number       Type             X           Y           Z
 ---------------------------------------------------------------------
      1          6           0       -2.419940   -2.036773   -0.283850
      2          6           0       -1.066638   -1.812471   -0.687576
      3          6           0       -0.527327   -0.519592   -0.622439
      4          6           0       -1.286188    0.558624   -0.169928
      5          6           0       -2.604451    0.353419    0.225838
      6          6           0       -3.156962   -0.927196    0.167354
      7          6           0       -3.231594   -3.367804   -0.266426
      8          6           0       -2.761060   -4.632049   -0.658884
      9          6           0       -3.592920   -5.756901   -0.596080
     10          6           0       -4.908422   -5.639510   -0.140630
     11          6           0       -5.389461   -4.390615    0.252407
     12          6           0       -4.557543   -3.269005    0.188974
     13          1           0        0.488233   -0.358044   -0.926679
     14          1           0       -0.855842    1.539969   -0.127401
     15          1           0       -3.195031    1.177682    0.575210
     16          1           0       -4.173563   -1.067791    0.475872
     17          1           0       -1.768244   -4.754710   -1.009009
     18          1           0       -6.397908   -4.291984    0.603174
     19          1           0       -4.941425   -2.316175    0.494399
     20         17           0        0.050905   -3.032273   -1.284843
     21         17           0       -2.970914   -7.324327   -1.095382
     22         17           0       -5.955690   -7.050249   -0.060547
 ---------------------------------------------------------------------
                    Distance matrix (angstroms):
                    1          2          3          4          5
     1  C    0.000000
     2  C    1.429942   0.000000
     3  C    2.449176   1.402367   0.000000
     4  C    2.834512   2.436854   1.393982   0.000000
     5  C    2.450887   2.808964   2.407523   1.391602   0.000000
     6  C    1.406396   2.425711   2.775769   2.412720   1.395946
     7  C    1.559079   2.698789   3.943617   4.383007   3.805671
     8  C    2.644328   3.289667   4.680084   5.418248   5.065783
     9  C    3.913147   4.684975   6.068604   6.737096   6.244088
    10  C    4.380955   5.450200   6.755715   7.179018   6.431002
    11  C    3.827036   5.120273   6.276187   6.442840   5.501169
    12  C    2.512231   3.882815   4.945736   5.047902   4.115567
    13  H    3.418893   2.142464   1.072391   2.135772   3.376265
    14  H    3.906912   3.405450   2.143543   1.072401   2.142501
    15  H    3.416354   3.881457   3.381087   2.140595   1.072500
    16  H    2.142732   3.400169   3.847317   3.376273   2.131776
    17  H    2.887516   3.041766   4.430072   5.400737   5.321379
    18  H    4.658006   6.019673   7.084969   7.089130   6.009365
    19  H    2.653606   4.082250   4.894824   4.697506   3.558133
    20  Cl   2.845713   1.758848   2.662085   3.990663   4.560261
    21  Cl   5.377767   5.845778   7.245633   8.113919   7.799212
    22  Cl   6.138920   7.192379   8.510718   8.928111   8.131859
                    6          7          8          9         10
     6  C    0.000000
     7  C    2.479980   0.000000
     8  C    3.816457   1.404900   0.000000
     9  C    4.909067   2.438650   1.400438   0.000000
    10  C    5.036702   2.826345   2.427906   1.397054   0.000000
    11  C    4.121476   2.443711   2.792353   2.411271   1.394853
    12  C    2.728766   1.405450   2.409171   2.781444   2.418894
    13  H    3.848154   4.830290   5.375569   6.775895   7.591814
    14  H    3.386582   5.454334   6.481214   7.807404   8.244301
    15  H    2.144366   4.622892   5.955191   7.044052   7.065568
    16  H    1.071647   2.593911   3.998347   4.844996   4.671264
    17  H    4.238188   2.148566   1.059866   2.122343   3.376043
    18  H    4.692065   3.411137   3.864596   3.384103   2.141878
    19  H    2.284848   2.146695   3.383390   3.853077   3.383623
    20  Cl   4.102516   3.453195   3.295186   4.601679   5.718551
    21  Cl   6.523220   4.050826   2.735494   1.758698   2.739360
    22  Cl   6.736216   4.585138   4.051094   2.746312   1.758798
                   11         12         13         14         15
    11  C    0.000000
    12  C    1.397899   0.000000
    13  H    7.224899   5.931124   0.000000
    14  H    7.474609   6.076916   2.459235   0.000000
    15  H    5.993802   4.666760   4.263867   2.469154   0.000000
    16  H    3.545351   2.252798   4.919678   4.262818   2.451436
    17  H    3.851876   3.379744   4.942585   6.421269   6.303868
    18  H    1.072255   2.145925   8.076836   8.078360   6.338490
    19  H    2.136024   1.071697   5.944319   5.652298   3.906848
    20  Cl   5.814277   4.844169   2.733320   4.802839   5.632018
    21  Cl   4.033927   4.540109   7.779669   9.164401   8.667483
    22  Cl   2.737190   4.039168   9.330592   9.990233   8.701970
                   16         17         18         19         20
    16  H    0.000000
    17  H    4.645838   0.000000
    18  H    3.919099   4.924129   0.000000
    19  H    1.465749   4.275017   2.457030   0.000000
    20  Cl   4.980506   2.520353   6.836569   5.348071   0.000000
    21  Cl   6.561970   2.838451   4.881033   5.611764   5.252524
    22  Cl   6.265264   4.868653   2.871256   4.873208   7.329544
                   21         22
    21  Cl   0.000000
    22  Cl   3.170945   0.000000
 Stoichiometry    C12H7Cl3
 Framework group  C1[X(C12H7Cl3)]
 Deg. of freedom    60
 Full point group                 C1      NOp   1
 Largest Abelian subgroup         C1      NOp   1
 Largest concise Abelian subgroup C1      NOp   1
                         Standard orientation:                         
 ---------------------------------------------------------------------
 Center     Atomic      Atomic             Coordinates (Angstroms)
 Number     Number       Type             X           Y           Z
 ---------------------------------------------------------------------
      1          6           0        1.793218   -0.474736    0.000002
      2          6           0        2.683200    0.644489    0.000000
      3          6           0        4.069093    0.430169   -0.000001
      4          6           0        4.601691   -0.858057   -0.000001
      5          6           0        3.746140   -1.955594    0.000002
      6          6           0        2.363948   -1.760122    0.000003
      7          6           0        0.234208   -0.489488    0.000002
      8          6           0       -0.606457    0.636135    0.000003
      9          6           0       -1.999218    0.489705    0.000002
     10          6           0       -2.576927   -0.782306    0.000000
     11          6           0       -1.754832   -1.909149   -0.000001
     12          6           0       -0.364818   -1.760888   -0.000000
     13          1           0        4.731159    1.273787   -0.000003
     14          1           0        5.664460   -1.001467   -0.000002
     15          1           0        4.147904   -2.949999    0.000005
     16          1           0        1.719301   -2.616193    0.000005
     17          1           0       -0.199647    1.614818    0.000002
     18          1           0       -2.190292   -2.888999   -0.000006
     19          1           0        0.253687   -2.636094   -0.000003
     20         17           0        2.214226    2.339661   -0.000004
     21         17           0       -3.021565    1.920727    0.000004
     22         17           0       -4.325723   -0.969612   -0.000004
 ---------------------------------------------------------------------
 Rotational constants (GHZ):           0.8571045           0.2288396           0.1806165
 Standard basis: 6-311+G(d,p) (5D, 7F)
 There are   411 symmetry adapted cartesian basis functions of A   symmetry.
 There are   396 symmetry adapted basis functions of A   symmetry.
   396 basis functions,   647 primitive gaussians,   411 cartesian basis functions
    65 alpha electrons       65 beta electrons
       nuclear repulsion energy      1183.6301458914 Hartrees.
 NAtoms=   22 NActive=   22 NUniq=   22 SFac= 1.00D+00 NAtFMM=   60 NAOKFM=F Big=F
 Integral buffers will be    131072 words long.
 Raffenetti 2 integral format.
 Two-electron integral symmetry is turned on.
 One-electron integrals computed using PRISM.
 NBasis=   396 RedAO= T EigKep=  1.60D-06  NBF=   396
 NBsUse=   391 1.00D-06 EigRej=  9.77D-07 NBFU=   391
 Initial guess from the checkpoint file:  "/scratch/pkc/Gau-20834.chk"
 B after Tr=     0.000000   -0.000000   -0.000000
         Rot=    0.999696    0.000000    0.000000    0.024670 Ang=   2.83 deg.
 ExpMin= 4.38D-02 ExpMax= 1.06D+05 ExpMxC= 3.62D+03 IAcc=3 IRadAn=         5 AccDes= 0.00D+00
 Harris functional with IExCor=  402 and IRadAn=       5 diagonalized for initial guess.
 HarFok:  IExCor=  402 AccDes= 0.00D+00 IRadAn=         5 IDoV= 1 UseB2=F ITyADJ=14
 ICtDFT=  3500011 ScaDFX=  1.000000  1.000000  1.000000  1.000000
 FoFCou: FMM=F IPFlag=           0 FMFlag=      100000 FMFlg1=           0
         NFxFlg=           0 DoJE=T BraDBF=F KetDBF=T FulRan=T
         wScrn=  0.000000 ICntrl=       500 IOpCl=  0 I1Cent=   200000004 NGrid=           0
         NMat0=    1 NMatS0=      1 NMatT0=    0 NMatD0=    1 NMtDS0=    0 NMtDT0=    0
 Petite list used in FoFCou.
 Requested convergence on RMS density matrix=1.00D-08 within  32 cycles.
 Requested convergence on MAX density matrix=1.00D-06.
 Requested convergence on             energy=1.00D-06.
 No special actions if energy rises.
 SCF Done:  E(RB3LYP) =  -1842.25988849     A.U. after   16 cycles
            NFock= 16  Conv=0.46D-08     -V/T= 2.0029
 QCSCF skips out because SCF is already converged.
 Calling FoFJK, ICntrl=      2127 FMM=F ISym2X=0 I1Cent= 0 IOpClX= 0 NMat=1 NMatS=1 NMatT=0.
 ***** Axes restored to original set *****
 -------------------------------------------------------------------
 Center     Atomic                   Forces (Hartrees/Bohr)
 Number     Number              X              Y              Z
 -------------------------------------------------------------------
      1        6          -0.007336165   -0.027844758   -0.002812679
      2        6          -0.014559109    0.011677972    0.006989914
      3        6          -0.009974319   -0.001280105    0.003045786
      4        6          -0.003310074   -0.010798697   -0.000937809
      5        6           0.002022185   -0.010933982   -0.002719664
      6        6           0.022680825    0.017303210   -0.004222608
      7        6           0.012788066    0.021001570   -0.000268635
      8        6          -0.014236427    0.002928490    0.005240361
      9        6           0.001278622    0.001704063   -0.000101277
     10        6          -0.001297705   -0.003742242   -0.000275225
     11        6           0.013000634    0.005019030   -0.003340397
     12        6          -0.003861685   -0.023979121   -0.003231307
     13        1           0.006967074   -0.000611410   -0.002410153
     14        1           0.004226037    0.006636293   -0.000145921
     15        1          -0.004923499    0.005653082    0.002683818
     16        1           0.003268642    0.010101443    0.000820150
     17        1           0.012374031   -0.002402952   -0.004528110
     18        1          -0.006827937   -0.000363245    0.002181219
     19        1          -0.009808543   -0.008390665    0.001655703
     20       17          -0.004630752   -0.003896916    0.000793696
     21       17           0.001714427    0.006117865    0.000584182
     22       17           0.000445672    0.006101077    0.000998958
 -------------------------------------------------------------------
 Cartesian Forces:  Max     0.027844758 RMS     0.008629850

 GradGradGradGradGradGradGradGradGradGradGradGradGradGradGradGradGradGrad
 Berny optimization.
 Using GEDIIS/GDIIS optimizer.
 FormGI is forming the generalized inverse of G from B-inverse, IUseBI=4.
 Internal  Forces:  Max     0.063545995 RMS     0.011595280
 Search for a local minimum.
 Step number   2 out of a maximum of  121
 All quantities printed in internal units (Hartrees-Bohrs-Radians)
 Mixed Optimization -- RFO/linear search
 Update second derivatives using D2CorX and points    1    2
 DE= -3.81D-02 DEPred=-1.45D-01 R= 2.63D-01
 Trust test= 2.63D-01 RLast= 3.00D-01 DXMaxT set to 3.00D-01
 ITU=  0  0
 Use linear search instead of GDIIS.
     Eigenvalues ---    0.00237   0.01478   0.01484   0.02070   0.02070
     Eigenvalues ---    0.02070   0.02070   0.02070   0.02070   0.02070
     Eigenvalues ---    0.02070   0.02070   0.02070   0.02070   0.02070
     Eigenvalues ---    0.02070   0.02070   0.02070   0.02070   0.15967
     Eigenvalues ---    0.16000   0.16000   0.16000   0.16000   0.16000
     Eigenvalues ---    0.16035   0.22000   0.22374   0.22526   0.23411
     Eigenvalues ---    0.24303   0.24592   0.24878   0.25000   0.25000
     Eigenvalues ---    0.25000   0.28453   0.29533   0.29539   0.29539
     Eigenvalues ---    0.37085   0.37188   0.37230   0.37230   0.37230
     Eigenvalues ---    0.37230   0.37230   0.40405   0.41264   0.41321
     Eigenvalues ---    0.41733   0.45043   0.45329   0.45389   0.45389
     Eigenvalues ---    0.45389   0.45389   0.45389   0.45389   2.06889
 RFO step:  Lambda=-1.41085645D-02 EMin= 2.36824244D-03
 Quartic linear search produced a step of -0.32723.
 Iteration  1 RMS(Cart)=  0.15137540 RMS(Int)=  0.00484532
 Iteration  2 RMS(Cart)=  0.00898350 RMS(Int)=  0.00006129
 Iteration  3 RMS(Cart)=  0.00003349 RMS(Int)=  0.00006047
 Iteration  4 RMS(Cart)=  0.00000000 RMS(Int)=  0.00006047
 Variable       Old X    -DE/DX   Delta X   Delta X   Delta X     New X
                                 (Linear)    (Quad)   (Total)
    R1        2.70220  -0.01773  -0.01765   0.02101   0.00348   2.70568
    R2        2.65770   0.00929  -0.00309   0.02161   0.01860   2.67630
    R3        2.94623  -0.00632  -0.01180   0.01506   0.00326   2.94949
    R4        2.65009  -0.00733  -0.00060  -0.00955  -0.01011   2.63998
    R5        3.32374  -0.00051   0.00071  -0.00288  -0.00217   3.32157
    R6        2.63425  -0.00914   0.00459  -0.02541  -0.02091   2.61334
    R7        2.02652   0.00719  -0.00148   0.01634   0.01486   2.04139
    R8        2.62975  -0.00424   0.00606  -0.02170  -0.01577   2.61398
    R9        2.02654   0.00776  -0.00148   0.01735   0.01587   2.04241
   R10        2.63796  -0.00514   0.00337  -0.01576  -0.01243   2.62553
   R11        2.02673   0.00793  -0.00155   0.01780   0.01626   2.04299
   R12        2.02512  -0.00419  -0.00102  -0.00464  -0.00566   2.01946
   R13        2.65488  -0.00331  -0.00216   0.00123  -0.00085   2.65402
   R14        2.65592   0.00984  -0.00250   0.02130   0.01885   2.67476
   R15        2.64644  -0.00829   0.00059  -0.01377  -0.01315   2.63330
   R16        2.00286   0.01337   0.00627   0.00699   0.01325   2.01611
   R17        2.64005  -0.00443   0.00269  -0.01402  -0.01139   2.62866
   R18        3.32346  -0.00501   0.00081  -0.01289  -0.01209   3.31137
   R19        2.63589  -0.00680   0.00405  -0.02077  -0.01680   2.61909
   R20        3.32365  -0.00511   0.00074  -0.01296  -0.01222   3.31143
   R21        2.64165  -0.00856   0.00217  -0.01776  -0.01563   2.62602
   R22        2.02627   0.00710  -0.00139   0.01597   0.01457   2.04084
   R23        2.02521  -0.00347  -0.00105  -0.00332  -0.00437   2.02085
    A1        2.05193  -0.01695   0.01389  -0.07713  -0.06301   1.98892
    A2        2.25205  -0.04660  -0.05159   0.00610  -0.04561   2.20645
    A3        1.97920   0.06355   0.03770   0.07104   0.10862   2.08782
    A4        2.08916   0.01637   0.00171   0.03563   0.03751   2.12667
    A5        2.19990  -0.01829  -0.03452   0.03765   0.00304   2.20294
    A6        1.99413   0.00192   0.03281  -0.07328  -0.04055   1.95357
    A7        2.11626  -0.00179  -0.00715   0.01019   0.00299   2.11925
    A8        2.08277  -0.00087   0.00381  -0.01239  -0.00856   2.07421
    A9        2.08416   0.00266   0.00335   0.00220   0.00557   2.08973
   A10        2.08743  -0.00442   0.00228  -0.01717  -0.01511   2.07232
   A11        2.09696   0.00091  -0.00084   0.00291   0.00218   2.09914
   A12        2.09879   0.00352  -0.00144   0.01425   0.01293   2.11172
   A13        2.09243   0.00119   0.00064   0.00425   0.00472   2.09715
   A14        2.09549   0.00013  -0.00036   0.00076   0.00049   2.09598
   A15        2.09526  -0.00132  -0.00028  -0.00501  -0.00521   2.09005
   A16        2.12915   0.00560  -0.01137   0.04423   0.03290   2.16205
   A17        2.07829   0.00711   0.00527   0.01703   0.02227   2.10056
   A18        2.07574  -0.01271   0.00610  -0.06126  -0.05517   2.02057
   A19        2.20281  -0.04420  -0.03548  -0.02725  -0.06279   2.14002
   A20        2.02056   0.05752   0.02416   0.08775   0.11184   2.13241
   A21        2.05981  -0.01333   0.01132  -0.06050  -0.04905   2.01076
   A22        2.10752   0.00906  -0.00430   0.03511   0.03093   2.13845
   A23        2.10617  -0.00365  -0.00385  -0.00149  -0.00540   2.10078
   A24        2.06949  -0.00541   0.00815  -0.03362  -0.02553   2.04396
   A25        2.10186   0.00070  -0.00244   0.00546   0.00299   2.10485
   A26        2.08638  -0.00691   0.00262  -0.02280  -0.02016   2.06622
   A27        2.09494   0.00621  -0.00018   0.01734   0.01718   2.11212
   A28        2.08499  -0.00386   0.00308  -0.01939  -0.01645   2.06854
   A29        2.10381   0.00775  -0.00308   0.02823   0.02521   2.12903
   A30        2.09438  -0.00389   0.00000  -0.00884  -0.00877   2.08562
   A31        2.09482   0.00400  -0.00014   0.01106   0.01081   2.10563
   A32        2.09311  -0.00305   0.00042  -0.01033  -0.00985   2.08326
   A33        2.09526  -0.00095  -0.00028  -0.00073  -0.00096   2.09430
   A34        2.11736   0.00344  -0.00752   0.02827   0.02077   2.13814
   A35        2.08608   0.01098   0.00272   0.03707   0.03978   2.12586
   A36        2.07974  -0.01442   0.00480  -0.06534  -0.06056   2.01919
    D1        0.00000  -0.00000   0.00000   0.00000   0.00000   0.00000
    D2        3.14159   0.00000   0.00000   0.00000   0.00000  -3.14159
    D3       -3.14159  -0.00000   0.00000  -0.00000  -0.00000  -3.14159
    D4       -0.00000   0.00000   0.00000   0.00000   0.00000  -0.00000
    D5       -0.00000   0.00000  -0.00000  -0.00000  -0.00000  -0.00000
    D6        3.14159  -0.00000  -0.00000  -0.00000  -0.00000   3.14159
    D7        3.14159   0.00000   0.00000   0.00000   0.00000   3.14159
    D8       -0.00000  -0.00000   0.00000  -0.00000  -0.00000  -0.00000
    D9       -0.00000  -0.00000   0.00000  -0.00000  -0.00000  -0.00001
   D10        3.14159  -0.00000   0.00000  -0.00000  -0.00000   3.14159
   D11        3.14159  -0.00000   0.00000  -0.00000  -0.00000   3.14159
   D12       -0.00000  -0.00000   0.00000  -0.00000  -0.00000  -0.00001
   D13        0.00000  -0.00000  -0.00000  -0.00000  -0.00000  -0.00000
   D14        3.14159   0.00000  -0.00000   0.00000   0.00000   3.14159
   D15       -3.14159  -0.00000   0.00000  -0.00000  -0.00000  -3.14159
   D16        0.00000  -0.00000   0.00000  -0.00000  -0.00000   0.00000
   D17       -0.00000   0.00000  -0.00000   0.00000   0.00000  -0.00000
   D18        3.14159   0.00000   0.00000   0.00000   0.00000   3.14159
   D19        3.14159   0.00000   0.00000   0.00000   0.00000   3.14159
   D20        0.00000  -0.00000   0.00000  -0.00000  -0.00000   0.00000
   D21        0.00000  -0.00000   0.00000  -0.00000  -0.00000   0.00000
   D22       -3.14159  -0.00000   0.00000  -0.00000  -0.00000  -3.14159
   D23       -3.14159  -0.00000   0.00000  -0.00000  -0.00000  -3.14159
   D24        0.00000   0.00000   0.00000   0.00000   0.00000   0.00000
   D25       -0.00000   0.00000  -0.00000   0.00000   0.00000  -0.00000
   D26        3.14159   0.00000  -0.00000   0.00000   0.00000  -3.14159
   D27        3.14159   0.00000  -0.00000   0.00000   0.00000   3.14159
   D28       -0.00000   0.00000  -0.00000   0.00000   0.00000  -0.00000
   D29        3.14159   0.00000  -0.00000   0.00000   0.00000   3.14159
   D30        0.00000   0.00000   0.00000  -0.00000  -0.00000   0.00000
   D31        0.00000   0.00000   0.00000   0.00000   0.00000   0.00000
   D32       -3.14159  -0.00000   0.00000  -0.00000  -0.00000  -3.14159
   D33       -3.14159   0.00000   0.00000  -0.00000  -0.00000  -3.14159
   D34        0.00000   0.00000   0.00000  -0.00000  -0.00000  -0.00000
   D35       -0.00000  -0.00000  -0.00000   0.00000  -0.00000  -0.00000
   D36        3.14159  -0.00000  -0.00000  -0.00000  -0.00000   3.14159
   D37       -0.00000  -0.00000   0.00000  -0.00000  -0.00000  -0.00000
   D38        3.14159  -0.00000   0.00000  -0.00000  -0.00000   3.14159
   D39        3.14159   0.00000  -0.00000   0.00000   0.00000   3.14159
   D40       -0.00000   0.00000  -0.00000   0.00000   0.00000  -0.00000
   D41       -0.00000  -0.00000  -0.00000   0.00000   0.00000  -0.00000
   D42       -3.14159  -0.00000   0.00000  -0.00000  -0.00000  -3.14159
   D43        3.14159   0.00000  -0.00000   0.00000   0.00000  -3.14159
   D44        0.00000  -0.00000   0.00000  -0.00000  -0.00000   0.00000
   D45        0.00000   0.00000   0.00000   0.00000   0.00000   0.00000
   D46       -3.14159  -0.00000   0.00000  -0.00000  -0.00000  -3.14159
   D47        3.14159   0.00000  -0.00000   0.00000   0.00000   3.14159
   D48        0.00000   0.00000   0.00000  -0.00000  -0.00000   0.00000
   D49        0.00000   0.00000   0.00000  -0.00000  -0.00000   0.00000
   D50       -3.14159   0.00000   0.00000  -0.00000  -0.00000  -3.14159
   D51        3.14159   0.00000  -0.00000   0.00000   0.00000   3.14159
   D52       -0.00000   0.00000  -0.00000   0.00000   0.00000  -0.00000
         Item               Value     Threshold  Converged?
 Maximum Force            0.063546     0.000450     NO 
 RMS     Force            0.011595     0.000300     NO 
 Maximum Displacement     0.562145     0.001800     NO 
 RMS     Displacement     0.154739     0.001200     NO 
 Predicted change in Energy=-9.533899D-03
 GradGradGradGradGradGradGradGradGradGradGradGradGradGradGradGradGradGrad

                          Input orientation:                          
 ---------------------------------------------------------------------
 Center     Atomic      Atomic             Coordinates (Angstroms)
 Number     Number       Type             X           Y           Z
 ---------------------------------------------------------------------
      1          6           0       -2.528882   -1.980970   -0.237477
      2          6           0       -1.168395   -1.829955   -0.657332
      3          6           0       -0.523841   -0.590686   -0.636938
      4          6           0       -1.173025    0.552695   -0.208326
      5          6           0       -2.488880    0.454345    0.206714
      6          6           0       -3.136298   -0.774837    0.189158
      7          6           0       -3.350200   -3.308032   -0.216123
      8          6           0       -2.810892   -4.538681   -0.624932
      9          6           0       -3.545893   -5.722389   -0.605093
     10          6           0       -4.867374   -5.728115   -0.170794
     11          6           0       -5.433929   -4.531981    0.240510
     12          6           0       -4.696386   -3.354432    0.218677
     13          1           0        0.503878   -0.532353   -0.964567
     14          1           0       -0.656390    1.501982   -0.200249
     15          1           0       -3.017406    1.334266    0.546093
     16          1           0       -4.151023   -0.770317    0.524310
     17          1           0       -1.802541   -4.598212   -0.968322
     18          1           0       -6.458980   -4.520783    0.580328
     19          1           0       -5.211214   -2.478692    0.552767
     20         17           0       -0.114703   -3.108386   -1.244572
     21         17           0       -2.764692   -7.197097   -1.139434
     22         17           0       -5.824923   -7.195145   -0.130844
[...]
     18          1           0       -2.155127   -2.476584    1.378750
     19          1           0        0.305057   -2.357538    1.165111
     20         17           0        1.880230    1.950753    1.143414
     21         17           0       -2.877741    1.640227   -1.155092
     22         17           0       -4.235100   -0.801443    0.455326
 ---------------------------------------------------------------------
 Rotational constants (GHZ):           0.8741613           0.2268880           0.2019005

 **********************************************************************

            Population analysis using the SCF Density.

 **********************************************************************

 Orbital symmetries:
       Occupied  (A) (A) (A) (A) (A) (A) (A) (A) (A) (A) (A) (A)
                 (A) (A) (A) (A) (A) (A) (A) (A) (A) (A) (A) (A)
                 (A) (A) (A) (A) (A) (A) (A) (A) (A) (A) (A) (A)
                 (A) (A) (A) (A) (A) (A) (A) (A) (A) (A) (A) (A)
                 (A) (A) (A) (A) (A) (A) (A) (A) (A) (A) (A) (A)
                 (A) (A) (A) (A) (A)
       Virtual   (A) (A) (A) (A) (A) (A) (A) (A) (A) (A) (A) (A)
                 (A) (A) (A) (A) (A) (A) (A) (A) (A) (A) (A) (A)
                 (A) (A) (A) (A) (A) (A) (A) (A) (A) (A) (A) (A)
                 (A) (A) (A) (A) (A) (A) (A) (A) (A) (A) (A) (A)
                 (A) (A) (A) (A) (A) (A) (A) (A) (A) (A) (A) (A)
                 (A) (A) (A) (A) (A) (A) (A) (A) (A) (A) (A) (A)
                 (A) (A) (A) (A) (A) (A) (A) (A) (A) (A) (A) (A)
                 (A) (A) (A) (A) (A) (A) (A) (A) (A) (A) (A) (A)
                 (A) (A) (A) (A) (A) (A) (A) (A) (A) (A) (A) (A)
                 (A) (A) (A) (A) (A) (A) (A) (A) (A) (A) (A) (A)
                 (A) (A) (A) (A) (A) (A) (A) (A) (A) (A) (A) (A)
                 (A) (A) (A) (A) (A) (A) (A) (A) (A) (A) (A) (A)
                 (A) (A) (A) (A) (A) (A) (A) (A) (A) (A) (A) (A)
                 (A) (A) (A) (A) (A) (A) (A) (A) (A) (A) (A) (A)
                 (A) (A) (A) (A) (A) (A) (A) (A) (A) (A) (A) (A)
                 (A) (A) (A) (A) (A) (A) (A) (A) (A) (A) (A) (A)
                 (A) (A) (A) (A) (A) (A) (A) (A) (A) (A) (A) (A)
                 (A) (A) (A) (A) (A) (A) (A) (A) (A) (A) (A) (A)
                 (A) (A) (A) (A) (A) (A) (A) (A) (A) (A) (A) (A)
                 (A) (A) (A) (A) (A) (A) (A) (A) (A) (A) (A) (A)
                 (A) (A) (A) (A) (A) (A) (A) (A) (A) (A) (A) (A)
                 (A) (A) (A) (A) (A) (A) (A) (A) (A) (A) (A) (A)
                 (A) (A) (A) (A) (A) (A) (A) (A) (A) (A) (A) (A)
                 (A) (A) (A) (A) (A) (A) (A) (A) (A) (A) (A) (A)
                 (A) (A) (A) (A) (A) (A) (A) (A) (A) (A) (A) (A)
                 (A) (A) (A) (A) (A) (A) (A) (A) (A) (A) (A) (A)
                 (A) (A) (A) (A) (A) (A) (A) (A) (A) (A) (A) (A)
                 (A) (A) (A) (A) (A) (A)
 The electronic state is 1-A.
 Alpha  occ. eigenvalues -- -101.56528-101.56427-101.56170 -10.25855 -10.25798
 Alpha  occ. eigenvalues --  -10.25414 -10.21630 -10.21376 -10.20520 -10.20465
 Alpha  occ. eigenvalues --  -10.20127 -10.20103 -10.20042 -10.19936 -10.19655
 Alpha  occ. eigenvalues --   -9.47986  -9.47886  -9.47645  -7.24464  -7.24366
 Alpha  occ. eigenvalues --   -7.24104  -7.23469  -7.23412  -7.23368  -7.23312
 Alpha  occ. eigenvalues --   -7.23134  -7.23084  -0.92859  -0.91042  -0.86849
 Alpha  occ. eigenvalues --   -0.85977  -0.85066  -0.79440  -0.76428  -0.75461
 Alpha  occ. eigenvalues --   -0.73466  -0.64892  -0.64291  -0.62090  -0.60037
 Alpha  occ. eigenvalues --   -0.54779  -0.51856  -0.51129  -0.48955  -0.48701
 Alpha  occ. eigenvalues --   -0.47022  -0.45265  -0.45071  -0.44688  -0.42887
 Alpha  occ. eigenvalues --   -0.41168  -0.40913  -0.39034  -0.37956  -0.37735
 Alpha  occ. eigenvalues --   -0.35671  -0.34941  -0.34703  -0.33676  -0.32463
 Alpha  occ. eigenvalues --   -0.31672  -0.28754  -0.27084  -0.26650  -0.25261
 Alpha virt. eigenvalues --   -0.05600  -0.04380  -0.03535  -0.02184  -0.01503
 Alpha virt. eigenvalues --   -0.00637   0.00063   0.01031   0.01918   0.02353
 Alpha virt. eigenvalues --    0.02732   0.03319   0.03975   0.04445   0.04791
 Alpha virt. eigenvalues --    0.05175   0.05877   0.06583   0.07030   0.07241
 Alpha virt. eigenvalues --    0.07888   0.08216   0.08841   0.09519   0.10016
 Alpha virt. eigenvalues --    0.10216   0.10792   0.10922   0.11237   0.11992
 Alpha virt. eigenvalues --    0.12262   0.12744   0.12806   0.13320   0.13947
 Alpha virt. eigenvalues --    0.14176   0.14566   0.15341   0.15410   0.15980
 Alpha virt. eigenvalues --    0.16221   0.16685   0.16831   0.17457   0.17785
 Alpha virt. eigenvalues --    0.18049   0.18717   0.18834   0.19389   0.19687
 Alpha virt. eigenvalues --    0.19811   0.20591   0.20720   0.21063   0.21237
 Alpha virt. eigenvalues --    0.21737   0.22277   0.22578   0.23202   0.23298
 Alpha virt. eigenvalues --    0.24037   0.24403   0.24585   0.25103   0.25608
 Alpha virt. eigenvalues --    0.25844   0.26150   0.26682   0.27507   0.27866
 Alpha virt. eigenvalues --    0.28432   0.28590   0.28859   0.28888   0.29968
 Alpha virt. eigenvalues --    0.30329   0.30457   0.31200   0.32023   0.32465
 Alpha virt. eigenvalues --    0.33835   0.34177   0.35150   0.36529   0.42823
 Alpha virt. eigenvalues --    0.42994   0.44472   0.45093   0.45607   0.46065
 Alpha virt. eigenvalues --    0.47166   0.47738   0.48342   0.48862   0.49524
 Alpha virt. eigenvalues --    0.50548   0.51130   0.51825   0.53046   0.53531
 Alpha virt. eigenvalues --    0.55603   0.55809   0.56678   0.57336   0.57955
 Alpha virt. eigenvalues --    0.58089   0.58351   0.59366   0.60657   0.61397
 Alpha virt. eigenvalues --    0.61999   0.62374   0.63332   0.63919   0.65661
 Alpha virt. eigenvalues --    0.66223   0.66544   0.67509   0.68126   0.68671
 Alpha virt. eigenvalues --    0.69394   0.69573   0.70191   0.70977   0.71448
 Alpha virt. eigenvalues --    0.72462   0.73280   0.73814   0.75224   0.78864
 Alpha virt. eigenvalues --    0.79942   0.81752   0.82093   0.82635   0.82965
 Alpha virt. eigenvalues --    0.84018   0.84409   0.85128   0.85452   0.85952
 Alpha virt. eigenvalues --    0.86173   0.86406   0.87352   0.88569   0.88834
 Alpha virt. eigenvalues --    0.89730   0.90152   0.91045   0.91562   0.92416
 Alpha virt. eigenvalues --    0.93764   0.94410   0.94832   0.95912   0.96838
 Alpha virt. eigenvalues --    0.97215   0.98142   0.99322   0.99913   1.00642
 Alpha virt. eigenvalues --    1.02228   1.04034   1.05208   1.06594   1.08047
 Alpha virt. eigenvalues --    1.09099   1.10827   1.12203   1.14097   1.15025
 Alpha virt. eigenvalues --    1.17875   1.24021   1.25451   1.26003   1.27559
 Alpha virt. eigenvalues --    1.28240   1.28941   1.30628   1.31305   1.33432
 Alpha virt. eigenvalues --    1.35400   1.39022   1.44524   1.47283   1.49208
 Alpha virt. eigenvalues --    1.50191   1.51649   1.51827   1.53981   1.55163
 Alpha virt. eigenvalues --    1.55851   1.56908   1.57298   1.61258   1.62654
 Alpha virt. eigenvalues --    1.64159   1.65399   1.67266   1.67688   1.69566
 Alpha virt. eigenvalues --    1.71413   1.72955   1.73488   1.76231   1.77812
 Alpha virt. eigenvalues --    1.80780   1.82846   1.85593   1.85883   1.86952
 Alpha virt. eigenvalues --    1.90085   1.90759   1.91075   1.92394   1.93230
 Alpha virt. eigenvalues --    1.93997   1.95011   1.95824   1.96521   1.98119
 Alpha virt. eigenvalues --    2.00133   2.01366   2.01954   2.04560   2.07753
 Alpha virt. eigenvalues --    2.08320   2.13887   2.15482   2.19632   2.22208
 Alpha virt. eigenvalues --    2.24605   2.26486   2.27870   2.29979   2.30236
 Alpha virt. eigenvalues --    2.30959   2.31863   2.34917   2.38221   2.38767
 Alpha virt. eigenvalues --    2.40814   2.41852   2.44122   2.44711   2.49405
 Alpha virt. eigenvalues --    2.51609   2.54515   2.55803   2.56834   2.59567
 Alpha virt. eigenvalues --    2.61430   2.61883   2.66383   2.67376   2.68340
 Alpha virt. eigenvalues --    2.70346   2.71722   2.72702   2.72926   2.74795
 Alpha virt. eigenvalues --    2.75218   2.77869   2.78516   2.79329   2.79795
 Alpha virt. eigenvalues --    2.80857   2.81547   2.83665   2.84467   2.85146
 Alpha virt. eigenvalues --    2.85552   2.89225   2.91986   2.99205   2.99988
 Alpha virt. eigenvalues --    3.07279   3.08864   3.13370   3.14401   3.16315
 Alpha virt. eigenvalues --    3.18861   3.21677   3.23311   3.33132   3.35106
 Alpha virt. eigenvalues --    3.38589   3.42898   3.51327   3.52383   3.54727
 Alpha virt. eigenvalues --    3.60534   3.70412   3.75470   3.85324   3.87006
 Alpha virt. eigenvalues --    4.02079   4.06440   4.07349   4.12425   4.13439
 Alpha virt. eigenvalues --    4.38995   4.81141   4.83590   9.76224   9.80388
 Alpha virt. eigenvalues --    9.80848  23.44051  23.59778  23.89079  23.89789
 Alpha virt. eigenvalues --   23.90226  23.94276  23.99056  24.03364  24.06642
 Alpha virt. eigenvalues --   24.07523  24.14515  24.16868  25.78964  25.87660
 Alpha virt. eigenvalues --   25.88886  26.08700  26.19316  26.25024  26.50755
 Alpha virt. eigenvalues --   26.70638  26.77499 215.75240 215.79991 215.80576
          Condensed to atoms (all electrons):
               1          2          3          4          5          6
     1  C   55.776072 -12.392421  -5.743991  -2.859101  -0.021505   0.257540
     2  C  -12.392421  34.982942  -4.883493  -0.605477  -1.921826  -9.800571
     3  C   -5.743991  -4.883493  21.909245   0.016597   2.240014 -10.526711
     4  C   -2.859101  -0.605477   0.016597   7.064232  -0.260083   2.792327
     5  C   -0.021505  -1.921826   2.240014  -0.260083   8.426952  -2.205782
     6  C    0.257540  -9.800571 -10.526711   2.792327  -2.205782  32.290556
     7  C  -20.184087  -2.034020   3.854570  -0.442657  -0.355212  -6.208984
     8  C  -18.216293   5.466329   1.519634  -0.005744  -0.225688  -3.441854
     9  C   12.889580  -1.452778  -0.468588  -0.079749   0.348458   0.925331
    10  C   -5.228757   0.144696   0.085588   0.005853  -0.052911  -0.004342
    11  C    4.753493   0.381552  -0.002329   0.019963   0.001032  -0.131113
    12  C   -5.992125  -1.813150   0.070692   0.048952   0.006029   1.385475
    13  H    0.093085   0.000651   0.299356  -0.045500  -0.040192   0.029439
    14  H    0.026175  -0.048898   0.031883   0.344012   0.045976  -0.058573
    15  H   -0.024051   0.014135  -0.033923   0.025997   0.342654   0.011446
    16  H   -0.082631  -0.014580   0.017957  -0.003691  -0.085514   0.331645
    17  H    0.164251   0.061965   0.005315   0.001732  -0.003230  -0.030782
    18  H    0.015533  -0.001536  -0.000330   0.000119  -0.000458   0.000208
    19  H    0.079074  -0.027207  -0.006833   0.005461  -0.005799   0.081475
    20  Cl   1.693545  -0.023299  -1.521754   0.116228  -0.017267   0.962446
    21  Cl   0.011518   0.011244   0.023382  -0.000718   0.004390  -0.021711
    22  Cl  -0.341281  -0.007080  -0.003235  -0.000129   0.001024   0.012815
               7          8          9         10         11         12
     1  C  -20.184087 -18.216293  12.889580  -5.228757   4.753493  -5.992125
     2  C   -2.034020   5.466329  -1.452778   0.144696   0.381552  -1.813150
     3  C    3.854570   1.519634  -0.468588   0.085588  -0.002329   0.070692
     4  C   -0.442657  -0.005744  -0.079749   0.005853   0.019963   0.048952
     5  C   -0.355212  -0.225688   0.348458  -0.052911   0.001032   0.006029
     6  C   -6.208984  -3.441854   0.925331  -0.004342  -0.131113   1.385475
     7  C   44.562889   4.828159 -11.146180  -4.099549  -3.084959   2.099129
     8  C    4.828159  50.822293 -12.198410  -2.090545  -7.604466 -11.766300
     9  C  -11.146180 -12.198410  34.618178  -7.760233  -5.437213  -4.826605
    10  C   -4.099549  -2.090545  -7.760233  28.104780  -2.504590   0.544376
    11  C   -3.084959  -7.604466  -5.437213  -2.504590  22.169389  -1.424688
    12  C    2.099129 -11.766300  -4.826605   0.544376  -1.424688  27.663884
    13  H    0.023738  -0.002283  -0.002125   0.000219  -0.000409   0.003076
    14  H    0.010834  -0.001286  -0.000277   0.000051  -0.000077   0.000358
    15  H    0.011813  -0.000429  -0.000898   0.000187  -0.000133   0.001589
    16  H    0.096883  -0.036297  -0.029582   0.015110  -0.008143   0.145164
    17  H   -0.089402   0.027789   0.153513   0.019734   0.016124   0.019220
    18  H    0.016649  -0.052989   0.057645  -0.000416   0.372662  -0.057137
    19  H   -0.013105  -0.009790   0.005406  -0.034776  -0.012067   0.289821
    20  Cl  -2.050460  -0.779239   0.939956  -0.219740   0.066959  -0.444523
    21  Cl  -0.456607   0.093836  -1.024801  -0.087059   0.547466   0.141903
    22  Cl  -0.123945   1.117144   0.167549  -1.030720  -0.965920   0.412757
              13         14         15         16         17         18
     1  C    0.093085   0.026175  -0.024051  -0.082631   0.164251   0.015533
     2  C    0.000651  -0.048898   0.014135  -0.014580   0.061965  -0.001536
     3  C    0.299356   0.031883  -0.033923   0.017957   0.005315  -0.000330
     4  C   -0.045500   0.344012   0.025997  -0.003691   0.001732   0.000119
     5  C   -0.040192   0.045976   0.342654  -0.085514  -0.003230  -0.000458
     6  C    0.029439  -0.058573   0.011446   0.331645  -0.030782   0.000208
     7  C    0.023738   0.010834   0.011813   0.096883  -0.089402   0.016649
     8  C   -0.002283  -0.001286  -0.000429  -0.036297   0.027789  -0.052989
     9  C   -0.002125  -0.000277  -0.000898  -0.029582   0.153513   0.057645
    10  C    0.000219   0.000051   0.000187   0.015110   0.019734  -0.000416
    11  C   -0.000409  -0.000077  -0.000133  -0.008143   0.016124   0.372662
    12  C    0.003076   0.000358   0.001589   0.145164   0.019220  -0.057137
    13  H    0.513678  -0.007817  -0.000206   0.000058  -0.000004   0.000000
    14  H   -0.007817   0.529569  -0.007590  -0.000287  -0.000000  -0.000000
    15  H   -0.000206  -0.007590   0.532434  -0.007331   0.000002   0.000000
    16  H    0.000058  -0.000287  -0.007331   0.530969  -0.000025   0.000034
    17  H   -0.000004  -0.000000   0.000002  -0.000025   0.500202   0.000053
    18  H    0.000000  -0.000000   0.000000   0.000034   0.000053   0.510708
    19  H    0.000003  -0.000002   0.000015  -0.000547  -0.000194  -0.007112
    20  Cl  -0.014963  -0.000022   0.001046  -0.003763   0.002309  -0.000183
    21  Cl  -0.000023  -0.000001   0.000001  -0.000120  -0.004222   0.000351
    22  Cl  -0.000000   0.000000  -0.000000  -0.000061  -0.001764  -0.007601
              19         20         21         22
     1  C    0.079074   1.693545   0.011518  -0.341281
     2  C   -0.027207  -0.023299   0.011244  -0.007080
     3  C   -0.006833  -1.521754   0.023382  -0.003235
     4  C    0.005461   0.116228  -0.000718  -0.000129
     5  C   -0.005799  -0.017267   0.004390   0.001024
     6  C    0.081475   0.962446  -0.021711   0.012815
     7  C   -0.013105  -2.050460  -0.456607  -0.123945
     8  C   -0.009790  -0.779239   0.093836   1.117144
     9  C    0.005406   0.939956  -1.024801   0.167549
    10  C   -0.034776  -0.219740  -0.087059  -1.030720
    11  C   -0.012067   0.066959   0.547466  -0.965920
    12  C    0.289821  -0.444523   0.141903   0.412757
    13  H    0.000003  -0.014963  -0.000023  -0.000000
    14  H   -0.000002  -0.000022  -0.000001   0.000000
    15  H    0.000015   0.001046   0.000001  -0.000000
    16  H   -0.000547  -0.003763  -0.000120  -0.000061
    17  H   -0.000194   0.002309  -0.004222  -0.001764
    18  H   -0.007112  -0.000183   0.000351  -0.007601
    19  H    0.525828  -0.000446   0.000390  -0.001039
    20  Cl  -0.000446  17.853869   0.014616  -0.001913
    21  Cl   0.000390   0.014616  17.445724  -0.205358
    22  Cl  -0.001039  -0.001913  -0.205358  17.499552
 Mulliken charges:
               1
     1  C    1.326375
     2  C   -0.037177
     3  C   -0.883048
     4  C   -0.138623
     5  C   -0.221061
     6  C   -0.650281
     7  C    0.784506
     8  C   -1.443571
     9  C    0.321823
    10  C    0.193045
    11  C   -1.152533
    12  C   -0.507899
    13  H    0.150216
    14  H    0.135973
    15  H    0.133242
    16  H    0.134753
    17  H    0.157414
    18  H    0.153801
    19  H    0.131444
    20  Cl   0.426598
    21  Cl   0.505797
    22  Cl   0.479206
 Sum of Mulliken charges =  -0.00000
 Mulliken charges with hydrogens summed into heavy atoms:
               1
     1  C    1.326375
     2  C   -0.037177
     3  C   -0.732832
     4  C   -0.002651
     5  C   -0.087819
     6  C   -0.515528
     7  C    0.784506
     8  C   -1.286156
     9  C    0.321823
    10  C    0.193045
    11  C   -0.998732
    12  C   -0.376455
    20  Cl   0.426598
    21  Cl   0.505797
    22  Cl   0.479206
 Electronic spatial extent (au):  <R**2>=           5111.3788
 Charge=             -0.0000 electrons
 Dipole moment (field-independent basis, Debye):
    X=              3.1519    Y=             -2.2097    Z=             -0.3233  Tot=              3.8629
 Quadrupole moment (field-independent basis, Debye-Ang):
   XX=           -103.0626   YY=           -103.1927   ZZ=           -109.6083
   XY=             -1.1584   XZ=             -3.8565   YZ=             -0.8761
 Traceless Quadrupole moment (field-independent basis, Debye-Ang):
   XX=              2.2252   YY=              2.0951   ZZ=             -4.3204
   XY=             -1.1584   XZ=             -3.8565   YZ=             -0.8761
 Octapole moment (field-independent basis, Debye-Ang**2):
  XXX=             62.8641  YYY=              0.3307  ZZZ=              3.6468  XYY=             -4.5773
  XXY=             -1.2993  XXZ=             -7.1514  XZZ=            -12.7310  YZZ=              1.1022
  YYZ=              0.8737  XYZ=             10.5910
 Hexadecapole moment (field-independent basis, Debye-Ang**3):
 XXXX=          -4878.3924 YYYY=          -1138.3815 ZZZZ=           -507.9069 XXXY=             -3.9781
 XXXZ=            -40.8786 YYYX=            -11.4947 YYYZ=             -2.5666 ZZZX=             20.7976
 ZZZY=             -2.9618 XXYY=          -1041.4876 XXZZ=           -984.0083 YYZZ=           -258.5535
 XXYZ=             27.4877 YYXZ=            -18.6119 ZZXY=             -4.9165
 N-N= 1.197072630653D+03 E-N=-6.746301382140D+03  KE= 1.836981996061D+03
 1\1\GINC-DAMODAR\FOpt\RB3LYP\6-311+G(d,p)\C12H7Cl3\PKC\15-Mar-2022\0\\
 # opt b3lyp/6-311+g(d,p) scf=xqc\\Title Card Required\\0,1\C,-2.561712
 1655,-1.9931389551,-0.2534859543\C,-1.5151541231,-1.7037905568,-1.1417
 803988\C,-0.8284599723,-0.492969806,-1.0934391987\C,-1.1784907591,0.46
 38921139,-0.1462788059\C,-2.2184183145,0.2088923086,0.7445849222\C,-2.
 8958939506,-1.0038171706,0.6848541047\C,-3.3280724127,-3.2698083844,-0
 .2616760784\C,-2.6901326985,-4.4970050943,-0.0638956821\C,-3.418364892
 8,-5.6825921692,-0.026540541\C,-4.8065935114,-5.6570566803,-0.19138927
 85\C,-5.4493873932,-4.4373485401,-0.3881290935\C,-4.7185274633,-3.2558
 486308,-0.4196344893\H,-0.0317079871,-0.3058085268,-1.8018593544\H,-0.
 6403458601,1.4038856967,-0.1105690454\H,-2.4976125139,0.9473396612,1.4
 868599726\H,-3.6942566425,-1.2109528265,1.3883199653\H,-1.6178582818,-
 4.540991248,0.0723277639\H,-6.5236938966,-4.4237950441,-0.5203920485\H
 ,-5.232576642,-2.3163681868,-0.5843591086\Cl,-1.0534282032,-2.84742493
 98,-2.399767944\Cl,-2.560714314,-7.1828976655,0.2364432974\Cl,-5.76058
 51502,-7.1201712863,-0.15663993\\Version=EM64L-G16RevB.01\State=1-A\HF
 =-1842.2815328\RMSD=5.625e-09\RMSF=5.785e-06\Dipole=-0.0876395,1.47580
 51,0.3521633\Quadrupole=1.6459484,1.7696868,-3.4156352,0.4793224,-0.01
 84746,2.8537284\PG=C01 [X(C12H7Cl3)]\\@


 Everywhere is walking distance if you have the time.
                                    -- Steven Wright
 Job cpu time:       0 days 14 hours 21 minutes 59.6 seconds.
 Elapsed time:       0 days  4 hours  6 minutes 48.4 seconds.
 File lengths (MBytes):  RWF=    102 Int=      0 D2E=      0 Chk=     17 Scr=      1
 Normal termination of Gaussian 16 at Tue Mar 15 05:18:41 2022.
