 Entering Gaussian System, Link 0=g16
 Input=2,3prime,4,4prime,6-Pentachlorobiphenyl.gjf
 Output=2,3prime,4,4prime,6-Pentachlorobiphenyl.log
 Initial command:
 /home/apps/g16/l1.exe "./Gau-415178.inp" -scrdir="./"
 Entering Link 1 = /home/apps/g16/l1.exe PID=    415179.
  
 Copyright (c) 1988-2017, Gaussian, Inc.  All Rights Reserved.
  
 This is part of the Gaussian(R) 16 program.  It is based on
 the Gaussian(R) 09 system (copyright 2009, Gaussian, Inc.),
 the Gaussian(R) 03 system (copyright 2003, Gaussian, Inc.),
 the Gaussian(R) 98 system (copyright 1998, Gaussian, Inc.),
 the Gaussian(R) 94 system (copyright 1995, Gaussian, Inc.),
 the Gaussian 92(TM) system (copyright 1992, Gaussian, Inc.),
 the Gaussian 90(TM) system (copyright 1990, Gaussian, Inc.),
 the Gaussian 88(TM) system (copyright 1988, Gaussian, Inc.),
 the Gaussian 86(TM) system (copyright 1986, Carnegie Mellon
 University), and the Gaussian 82(TM) system (copyright 1983,
 Carnegie Mellon University). Gaussian is a federally registered
 trademark of Gaussian, Inc.
  
 This software contains proprietary and confidential information,
 including trade secrets, belonging to Gaussian, Inc.
  
 This software is provided under written license and may be
 used, copied, transmitted, or stored only in accord with that
 written license.
  
 The following legend is applicable only to US Government
 contracts under FAR:
  
                    RESTRICTED RIGHTS LEGEND
  
 Use, reproduction and disclosure by the US Government is
 subject to restrictions as set forth in subparagraphs (a)
 and (c) of the Commercial Computer Software - Restricted
 Rights clause in FAR 52.227-19.
  
 Gaussian, Inc.
 340 Quinnipiac St., Bldg. 40, Wallingford CT 06492
  
  
 ---------------------------------------------------------------
 Warning -- This program may not be used in any manner that
 competes with the business of Gaussian, Inc. or will provide
 assistance to any competitor of Gaussian, Inc.  The licensee
 of this program is prohibited from giving any competitor of
 Gaussian, Inc. access to this program.  By using this program,
 the user acknowledges that Gaussian, Inc. is engaged in the
 business of creating and licensing software in the field of
 computational chemistry and represents and warrants to the
 licensee that it is not a competitor of Gaussian, Inc. and that
 it will not use this program in any manner prohibited above.
 ---------------------------------------------------------------
  

 Cite this work as:
 Gaussian 16, Revision B.01,
 M. J. Frisch, G. W. Trucks, H. B. Schlegel, G. E. Scuseria, 
 M. A. Robb, J. R. Cheeseman, G. Scalmani, V. Barone, 
 G. A. Petersson, H. Nakatsuji, X. Li, M. Caricato, A. V. Marenich, 
 J. Bloino, B. G. Janesko, R. Gomperts, B. Mennucci, H. P. Hratchian, 
 J. V. Ortiz, A. F. Izmaylov, J. L. Sonnenberg, D. Williams-Young, 
 F. Ding, F. Lipparini, F. Egidi, J. Goings, B. Peng, A. Petrone, 
 T. Henderson, D. Ranasinghe, V. G. Zakrzewski, J. Gao, N. Rega, 
 G. Zheng, W. Liang, M. Hada, M. Ehara, K. Toyota, R. Fukuda, 
 J. Hasegawa, M. Ishida, T. Nakajima, Y. Honda, O. Kitao, H. Nakai, 
 T. Vreven, K. Throssell, J. A. Montgomery, Jr., J. E. Peralta, 
 F. Ogliaro, M. J. Bearpark, J. J. Heyd, E. N. Brothers, K. N. Kudin, 
 V. N. Staroverov, T. A. Keith, R. Kobayashi, J. Normand, 
 K. Raghavachari, A. P. Rendell, J. C. Burant, S. S. Iyengar, 
 J. Tomasi, M. Cossi, J. M. Millam, M. Klene, C. Adamo, R. Cammi, 
 J. W. Ochterski, R. L. Martin, K. Morokuma, O. Farkas, 
 J. B. Foresman, and D. J. Fox, Gaussian, Inc., Wallingford CT, 2016.
 
 ******************************************
 Gaussian 16:  EM64L-G16RevB.01 20-Dec-2017
                 3-Apr-2022 
 ******************************************
 %mem=32GB
 %nprocshared=16
 Will use up to   16 processors via shared memory.
 --------------------------------
 # opt b3lyp/6-311+g(d,p) scf=xqc
 --------------------------------
 1/18=20,19=15,26=3,38=1/1,3;
 2/9=110,12=2,17=6,18=5,40=1/2;
 3/5=4,6=6,7=111,11=2,25=1,30=1,71=1,74=-5/1,2,3;
 4//1;
 5/5=2,8=3,13=1,38=5/2,8;
 6/7=2,8=2,9=2,10=2,28=1/1;
 7//1,2,3,16;
 1/18=20,19=15,26=3/3(2);
 2/9=110/2;
 99//99;
 2/9=110/2;
 3/5=4,6=6,7=111,11=2,25=1,30=1,71=1,74=-5/1,2,3;
 4/5=5,16=3,69=1/1;
 5/5=2,8=3,13=1,38=5/2,8;
 7//1,2,3,16;
 1/18=20,19=15,26=3/3(-5);
 2/9=110/2;
 6/7=2,8=2,9=2,10=2,19=2,28=1/1;
 99/9=1/99;
 -------------------
 Title Card Required
 -------------------
 Symbolic Z-matrix:
 Charge =  0 Multiplicity = 1
 C                     0.21471   1.21462  -0.00285 
 C                     1.54709   1.24451  -0.4362 
 C                     2.25499   2.45396  -0.44227 
 C                     1.6305    3.63352  -0.015 
 C                     0.29812   3.60364   0.41835 
 C                    -0.40978   2.39419   0.42442 
 C                    -0.56319  -0.11444   0.00382 
 C                     0.06129  -1.29401  -0.42345 
 C                    -0.6466   -2.50346  -0.41738 
 C                    -1.97898  -2.53335   0.01597 
 C                    -2.60347  -1.35378   0.44325 
 C                    -1.89557  -0.14433   0.43717 
 H                     2.0239    0.34388  -0.76243 
 H                     3.27229   2.47678  -0.77314 
 H                    -1.42708   2.37137   0.75529 
 H                    -0.16979  -3.40408  -0.74361 
 H                    -3.62077  -1.3766    0.77412 
 Cl                   -2.67986   1.33707   0.97378 
 Cl                   -0.48617   5.08504   0.95495 
 Cl                   -2.86801  -4.05228   0.0236 
 Cl                    2.51953   5.15246  -0.02262 
 Cl                    1.73461  -1.25648  -0.96769 
 

 GradGradGradGradGradGradGradGradGradGradGradGradGradGradGradGradGradGrad
 Berny optimization.
 Initialization pass.
                           ----------------------------
                           !    Initial Parameters    !
                           ! (Angstroms and Degrees)  !
 --------------------------                            --------------------------
 ! Name  Definition              Value          Derivative Info.                !
 --------------------------------------------------------------------------------
 ! R1    R(1,2)                  1.4014         estimate D2E/DX2                !
 ! R2    R(1,6)                  1.4014         estimate D2E/DX2                !
 ! R3    R(1,7)                  1.54           estimate D2E/DX2                !
 ! R4    R(2,3)                  1.4014         estimate D2E/DX2                !
 ! R5    R(2,13)                 1.07           estimate D2E/DX2                !
 ! R6    R(3,4)                  1.4014         estimate D2E/DX2                !
 ! R7    R(3,14)                 1.07           estimate D2E/DX2                !
 ! R8    R(4,5)                  1.4014         estimate D2E/DX2                !
 ! R9    R(4,21)                 1.76           estimate D2E/DX2                !
 ! R10   R(5,6)                  1.4014         estimate D2E/DX2                !
 ! R11   R(5,19)                 1.76           estimate D2E/DX2                !
 ! R12   R(6,15)                 1.07           estimate D2E/DX2                !
 ! R13   R(7,8)                  1.4014         estimate D2E/DX2                !
 ! R14   R(7,12)                 1.4014         estimate D2E/DX2                !
 ! R15   R(8,9)                  1.4014         estimate D2E/DX2                !
 ! R16   R(8,22)                 1.76           estimate D2E/DX2                !
 ! R17   R(9,10)                 1.4014         estimate D2E/DX2                !
 ! R18   R(9,16)                 1.07           estimate D2E/DX2                !
 ! R19   R(10,11)                1.4014         estimate D2E/DX2                !
 ! R20   R(10,20)                1.76           estimate D2E/DX2                !
 ! R21   R(11,12)                1.4014         estimate D2E/DX2                !
 ! R22   R(11,17)                1.07           estimate D2E/DX2                !
 ! R23   R(12,18)                1.76           estimate D2E/DX2                !
 ! A1    A(2,1,6)              120.0            estimate D2E/DX2                !
 ! A2    A(2,1,7)              120.0            estimate D2E/DX2                !
 ! A3    A(6,1,7)              120.0            estimate D2E/DX2                !
 ! A4    A(1,2,3)              120.0            estimate D2E/DX2                !
 ! A5    A(1,2,13)             120.0            estimate D2E/DX2                !
 ! A6    A(3,2,13)             120.0            estimate D2E/DX2                !
 ! A7    A(2,3,4)              120.0            estimate D2E/DX2                !
 ! A8    A(2,3,14)             120.0            estimate D2E/DX2                !
 ! A9    A(4,3,14)             120.0            estimate D2E/DX2                !
 ! A10   A(3,4,5)              120.0            estimate D2E/DX2                !
 ! A11   A(3,4,21)             120.0            estimate D2E/DX2                !
 ! A12   A(5,4,21)             120.0            estimate D2E/DX2                !
 ! A13   A(4,5,6)              120.0            estimate D2E/DX2                !
 ! A14   A(4,5,19)             120.0            estimate D2E/DX2                !
 ! A15   A(6,5,19)             120.0            estimate D2E/DX2                !
 ! A16   A(1,6,5)              120.0            estimate D2E/DX2                !
 ! A17   A(1,6,15)             120.0            estimate D2E/DX2                !
 ! A18   A(5,6,15)             120.0            estimate D2E/DX2                !
 ! A19   A(1,7,8)              120.0            estimate D2E/DX2                !
 ! A20   A(1,7,12)             120.0            estimate D2E/DX2                !
 ! A21   A(8,7,12)             120.0            estimate D2E/DX2                !
 ! A22   A(7,8,9)              120.0            estimate D2E/DX2                !
 ! A23   A(7,8,22)             120.0            estimate D2E/DX2                !
 ! A24   A(9,8,22)             120.0            estimate D2E/DX2                !
 ! A25   A(8,9,10)             120.0            estimate D2E/DX2                !
 ! A26   A(8,9,16)             120.0            estimate D2E/DX2                !
 ! A27   A(10,9,16)            120.0            estimate D2E/DX2                !
 ! A28   A(9,10,11)            120.0            estimate D2E/DX2                !
 ! A29   A(9,10,20)            120.0            estimate D2E/DX2                !
 ! A30   A(11,10,20)           120.0            estimate D2E/DX2                !
 ! A31   A(10,11,12)           120.0            estimate D2E/DX2                !
 ! A32   A(10,11,17)           120.0            estimate D2E/DX2                !
 ! A33   A(12,11,17)           120.0            estimate D2E/DX2                !
 ! A34   A(7,12,11)            120.0            estimate D2E/DX2                !
 ! A35   A(7,12,18)            120.0            estimate D2E/DX2                !
 ! A36   A(11,12,18)           120.0            estimate D2E/DX2                !
 ! D1    D(6,1,2,3)              0.0001         estimate D2E/DX2                !
 ! D2    D(6,1,2,13)           180.0            estimate D2E/DX2                !
 ! D3    D(7,1,2,3)           -180.0            estimate D2E/DX2                !
 ! D4    D(7,1,2,13)            -0.0001         estimate D2E/DX2                !
 ! D5    D(2,1,6,5)             -0.0001         estimate D2E/DX2                !
 ! D6    D(2,1,6,15)           180.0            estimate D2E/DX2                !
 ! D7    D(7,1,6,5)            180.0            estimate D2E/DX2                !
 ! D8    D(7,1,6,15)             0.0            estimate D2E/DX2                !
 ! D9    D(2,1,7,8)             -0.0001         estimate D2E/DX2                !
 ! D10   D(2,1,7,12)           179.9998         estimate D2E/DX2                !
 ! D11   D(6,1,7,8)            179.9999         estimate D2E/DX2                !
 ! D12   D(6,1,7,12)            -0.0002         estimate D2E/DX2                !
 ! D13   D(1,2,3,4)              0.0            estimate D2E/DX2                !
 ! D14   D(1,2,3,14)           180.0            estimate D2E/DX2                !
 ! D15   D(13,2,3,4)          -179.9999         estimate D2E/DX2                !
 ! D16   D(13,2,3,14)            0.0001         estimate D2E/DX2                !
 ! D17   D(2,3,4,5)             -0.0001         estimate D2E/DX2                !
 ! D18   D(2,3,4,21)           180.0            estimate D2E/DX2                !
 ! D19   D(14,3,4,5)           179.9999         estimate D2E/DX2                !
 ! D20   D(14,3,4,21)            0.0            estimate D2E/DX2                !
 ! D21   D(3,4,5,6)              0.0001         estimate D2E/DX2                !
 ! D22   D(3,4,5,19)          -179.9999         estimate D2E/DX2                !
 ! D23   D(21,4,5,6)          -180.0            estimate D2E/DX2                !
 ! D24   D(21,4,5,19)            0.0            estimate D2E/DX2                !
 ! D25   D(4,5,6,1)              0.0            estimate D2E/DX2                !
 ! D26   D(4,5,6,15)           179.9999         estimate D2E/DX2                !
 ! D27   D(19,5,6,1)           180.0            estimate D2E/DX2                !
 ! D28   D(19,5,6,15)           -0.0001         estimate D2E/DX2                !
 ! D29   D(1,7,8,9)            179.9999         estimate D2E/DX2                !
 ! D30   D(1,7,8,22)             0.0001         estimate D2E/DX2                !
 ! D31   D(12,7,8,9)             0.0001         estimate D2E/DX2                !
 ! D32   D(12,7,8,22)         -179.9998         estimate D2E/DX2                !
 ! D33   D(1,7,12,11)         -179.9999         estimate D2E/DX2                !
 ! D34   D(1,7,12,18)            0.0            estimate D2E/DX2                !
 ! D35   D(8,7,12,11)           -0.0001         estimate D2E/DX2                !
 ! D36   D(8,7,12,18)          179.9999         estimate D2E/DX2                !
 ! D37   D(7,8,9,10)             0.0            estimate D2E/DX2                !
 ! D38   D(7,8,9,16)           180.0            estimate D2E/DX2                !
 ! D39   D(22,8,9,10)          179.9998         estimate D2E/DX2                !
 ! D40   D(22,8,9,16)           -0.0002         estimate D2E/DX2                !
 ! D41   D(8,9,10,11)            0.0            estimate D2E/DX2                !
 ! D42   D(8,9,10,20)         -179.9999         estimate D2E/DX2                !
 ! D43   D(16,9,10,11)         180.0            estimate D2E/DX2                !
 ! D44   D(16,9,10,20)           0.0001         estimate D2E/DX2                !
 ! D45   D(9,10,11,12)           0.0            estimate D2E/DX2                !
 ! D46   D(9,10,11,17)        -179.9998         estimate D2E/DX2                !
 ! D47   D(20,10,11,12)        179.9999         estimate D2E/DX2                !
 ! D48   D(20,10,11,17)          0.0001         estimate D2E/DX2                !
 ! D49   D(10,11,12,7)           0.0            estimate D2E/DX2                !
 ! D50   D(10,11,12,18)       -179.9999         estimate D2E/DX2                !
 ! D51   D(17,11,12,7)         179.9999         estimate D2E/DX2                !
 ! D52   D(17,11,12,18)         -0.0001         estimate D2E/DX2                !
 --------------------------------------------------------------------------------
 Trust Radius=3.00D-01 FncErr=1.00D-07 GrdErr=1.00D-06 EigMax=2.50D+02 EigMin=1.00D-04
 Number of steps in this run=    121 maximum allowed number of steps=    132.
 GradGradGradGradGradGradGradGradGradGradGradGradGradGradGradGradGradGrad

                          Input orientation:                          
 ---------------------------------------------------------------------
 Center     Atomic      Atomic             Coordinates (Angstroms)
 Number     Number       Type             X           Y           Z
 ---------------------------------------------------------------------
      1          6           0        0.214711    1.214623   -0.002851
      2          6           0        1.547092    1.244509   -0.436198
      3          6           0        2.254986    2.453960   -0.442270
      4          6           0        1.630499    3.633525   -0.014995
      5          6           0        0.298117    3.603639    0.418350
      6          6           0       -0.409777    2.394188    0.424422
      7          6           0       -0.563194   -0.114444    0.003823
      8          6           0        0.061294   -1.294009   -0.423452
      9          6           0       -0.646599   -2.503461   -0.417378
     10          6           0       -1.978979   -2.533347    0.015972
     11          6           0       -2.603467   -1.353782    0.443247
     12          6           0       -1.895574   -0.144331    0.437173
     13          1           0        2.023903    0.343884   -0.762430
     14          1           0        3.272289    2.476778   -0.773139
     15          1           0       -1.427080    2.371370    0.755291
     16          1           0       -0.169789   -3.404085   -0.743612
     17          1           0       -3.620767   -1.376602    0.774122
     18         17           0       -2.679858    1.337069    0.973785
     19         17           0       -0.486170    5.085040    0.954955
     20         17           0       -2.868012   -4.052282    0.023603
     21         17           0        2.519533    5.152458   -0.022621
     22         17           0        1.734614   -1.256476   -0.967686
 ---------------------------------------------------------------------
                    Distance matrix (angstroms):
                    1          2          3          4          5
     1  C    0.000000
     2  C    1.401400   0.000000
     3  C    2.427296   1.401400   0.000000
     4  C    2.802800   2.427296   1.401400   0.000000
     5  C    2.427296   2.802800   2.427296   1.401400   0.000000
     6  C    1.401400   2.427296   2.802800   2.427296   1.401400
     7  C    1.540000   2.548270   3.838989   4.342800   3.838989
     8  C    2.548270   2.941400   4.342800   5.187469   4.975106
     9  C    3.838989   4.342800   5.744200   6.558176   6.235992
    10  C    4.342800   5.187469   6.558176   7.145600   6.558176
    11  C    3.838989   4.975106   6.235992   6.558176   5.744200
    12  C    2.548270   3.813607   4.975106   5.187469   4.342800
    13  H    2.146700   1.070000   2.146700   3.396345   3.872800
    14  H    3.396345   2.146700   1.070000   2.146700   3.396345
    15  H    2.146700   3.396345   3.872800   3.396345   2.146700
    16  H    4.693509   4.965039   6.347206   7.300676   7.118798
    17  H    4.693509   5.919617   7.118798   7.300676   6.347206
    18  Cl   3.057342   4.456874   5.254079   4.983028   3.783409
    19  Cl   4.048303   4.562800   4.048303   2.743718   1.760000
    20  Cl   6.102800   6.910901   8.294174   8.905600   8.294174
    21  Cl   4.562800   4.048303   2.743718   1.760000   2.743718
    22  Cl   3.057342   2.563702   3.783409   4.983028   5.254079
                    6          7          8          9         10
     6  C    0.000000
     7  C    2.548270   0.000000
     8  C    3.813607   1.401400   0.000000
     9  C    4.975106   2.427296   1.401400   0.000000
    10  C    5.187469   2.802800   2.427296   1.401400   0.000000
    11  C    4.342800   2.427296   2.802800   2.427296   1.401400
    12  C    2.941400   1.401400   2.427296   2.802800   2.427296
    13  H    3.396345   2.736837   2.578650   3.918930   4.990735
    14  H    3.872800   4.693509   4.965039   6.347206   7.300676
    15  H    1.070000   2.736837   4.127917   5.074276   4.990735
    16  H    5.919617   3.396345   2.146700   1.070000   2.146700
    17  H    4.965039   3.396345   3.872800   3.396345   2.146700
    18  Cl   2.563702   2.743718   4.048303   4.562800   4.048303
    19  Cl   2.743718   5.286324   6.549198   7.713260   7.819846
    20  Cl   6.910901   4.562800   4.048303   2.743718   1.760000
    21  Cl   4.048303   6.102800   6.910901   8.294174   8.905600
    22  Cl   4.456874   2.743718   1.760000   2.743718   4.048303
                   11         12         13         14         15
    11  C    0.000000
    12  C    1.401400   0.000000
    13  H    5.074276   4.127917   0.000000
    14  H    7.118798   5.919617   2.471400   0.000000
    15  H    3.918930   2.578650   4.280590   4.942800   0.000000
    16  H    3.396345   3.872800   4.342800   6.814200   6.097816
    17  H    1.070000   2.146700   6.097816   8.047159   4.342800
    18  Cl   2.743718   1.760000   5.111382   6.307038   1.639199
    19  Cl   6.797295   5.440665   5.632800   4.890332   2.879094
    20  Cl   2.743718   4.048303   6.623817   8.998151   6.623817
    21  Cl   8.294174   6.910901   4.890332   2.879094   4.890332
    22  Cl   4.562800   4.048303   1.639199   4.042212   5.111382
                   16         17         18         19         20
    16  H    0.000000
    17  H    4.280590   0.000000
    18  Cl   5.632800   2.879094   0.000000
    19  Cl   8.663168   7.184095   4.342800   0.000000
    20  Cl   2.879094   2.879094   5.475705   9.488480   0.000000
    21  Cl   8.998151   8.998151   6.525618   3.161400  10.665600
    22  Cl   2.879094   5.632800   5.475705   6.988795   5.475705
                   21         22
    21  Cl   0.000000
    22  Cl   6.525618   0.000000
 Stoichiometry    C12H5Cl5
 Framework group  C1[X(C12H5Cl5)]
 Deg. of freedom    60
 Full point group                 C1      NOp   1
 Largest Abelian subgroup         C1      NOp   1
 Largest concise Abelian subgroup C1      NOp   1
                         Standard orientation:                         
 ---------------------------------------------------------------------
 Center     Atomic      Atomic             Coordinates (Angstroms)
 Number     Number       Type             X           Y           Z
 ---------------------------------------------------------------------
      1          6           0        0.470550    0.336927    0.000002
      2          6           0        1.010567    1.630103    0.000000
      3          6           0        2.400498    1.809022   -0.000001
      4          6           0        3.250413    0.694765   -0.000002
      5          6           0        2.710395   -0.598410    0.000002
      6          6           0        1.320464   -0.777330    0.000003
      7          6           0       -1.056848    0.140312    0.000003
      8          6           0       -1.906762    1.254569    0.000003
      9          6           0       -3.296694    1.075650    0.000003
     10          6           0       -3.836711   -0.217526    0.000001
     11          6           0       -2.986797   -1.331782   -0.000000
     12          6           0       -1.596865   -1.152863    0.000000
     13          1           0        0.361638    2.480862   -0.000001
     14          1           0        2.812814    2.796390   -0.000003
     15          1           0        0.908149   -1.764698    0.000005
     16          1           0       -3.945622    1.926409    0.000004
     17          1           0       -3.399112   -2.319151   -0.000004
     18         17           0       -0.529469   -2.552243   -0.000003
     19         17           0        3.777792   -1.997791    0.000005
     20         17           0       -5.582308   -0.442228   -0.000002
     21         17           0        4.996010    0.919468   -0.000005
     22         17           0       -1.228562    2.878651    0.000001
 ---------------------------------------------------------------------
 Rotational constants (GHZ):           0.5739783           0.1494279           0.1185619
 Standard basis: 6-311+G(d,p) (5D, 7F)
 There are   461 symmetry adapted cartesian basis functions of A   symmetry.
 There are   444 symmetry adapted basis functions of A   symmetry.
   444 basis functions,   737 primitive gaussians,   461 cartesian basis functions
    81 alpha electrons       81 beta electrons
       nuclear repulsion energy      1704.9024760488 Hartrees.
 NAtoms=   22 NActive=   22 NUniq=   22 SFac= 1.00D+00 NAtFMM=   60 NAOKFM=F Big=F
 Integral buffers will be    131072 words long.
 Raffenetti 2 integral format.
 Two-electron integral symmetry is turned on.
 One-electron integrals computed using PRISM.
 NBasis=   444 RedAO= T EigKep=  1.47D-06  NBF=   444
 NBsUse=   438 1.00D-06 EigRej=  6.35D-07 NBFU=   438
 ExpMin= 4.38D-02 ExpMax= 1.06D+05 ExpMxC= 3.62D+03 IAcc=3 IRadAn=         5 AccDes= 0.00D+00
 Harris functional with IExCor=  402 and IRadAn=       5 diagonalized for initial guess.
 HarFok:  IExCor=  402 AccDes= 0.00D+00 IRadAn=         5 IDoV= 1 UseB2=F ITyADJ=14
 ICtDFT=  3500011 ScaDFX=  1.000000  1.000000  1.000000  1.000000
 FoFCou: FMM=F IPFlag=           0 FMFlag=      100000 FMFlg1=           0
         NFxFlg=           0 DoJE=T BraDBF=F KetDBF=T FulRan=T
         wScrn=  0.000000 ICntrl=       500 IOpCl=  0 I1Cent=   200000004 NGrid=           0
         NMat0=    1 NMatS0=      1 NMatT0=    0 NMatD0=    1 NMtDS0=    0 NMtDT0=    0
 Petite list used in FoFCou.
 Requested convergence on RMS density matrix=1.00D-08 within  32 cycles.
 Requested convergence on MAX density matrix=1.00D-06.
 Requested convergence on             energy=1.00D-06.
 No special actions if energy rises.
 SCF Done:  E(RB3LYP) =  -2761.40292311     A.U. after   16 cycles
            NFock= 16  Conv=0.59D-08     -V/T= 2.0025
 QCSCF skips out because SCF is already converged.

 **********************************************************************

            Population analysis using the SCF Density.

 **********************************************************************

 Orbital symmetries:
       Occupied  (A) (A) (A) (A) (A) (A) (A) (A) (A) (A) (A) (A)
                 (A) (A) (A) (A) (A) (A) (A) (A) (A) (A) (A) (A)
                 (A) (A) (A) (A) (A) (A) (A) (A) (A) (A) (A) (A)
                 (A) (A) (A) (A) (A) (A) (A) (A) (A) (A) (A) (A)
                 (A) (A) (A) (A) (A) (A) (A) (A) (A) (A) (A) (A)
                 (A) (A) (A) (A) (A) (A) (A) (A) (A) (A) (A) (A)
                 (A) (A) (A) (A) (A) (A) (A) (A) (A)
       Virtual   (A) (A) (A) (A) (A) (A) (A) (A) (A) (A) (A) (A)
                 (A) (A) (A) (A) (A) (A) (A) (A) (A) (A) (A) (A)
                 (A) (A) (A) (A) (A) (A) (A) (A) (A) (A) (A) (A)
                 (A) (A) (A) (A) (A) (A) (A) (A) (A) (A) (A) (A)
                 (A) (A) (A) (A) (A) (A) (A) (A) (A) (A) (A) (A)
                 (A) (A) (A) (A) (A) (A) (A) (A) (A) (A) (A) (A)
                 (A) (A) (A) (A) (A) (A) (A) (A) (A) (A) (A) (A)
                 (A) (A) (A) (A) (A) (A) (A) (A) (A) (A) (A) (A)
                 (A) (A) (A) (A) (A) (A) (A) (A) (A) (A) (A) (A)
                 (A) (A) (A) (A) (A) (A) (A) (A) (A) (A) (A) (A)
                 (A) (A) (A) (A) (A) (A) (A) (A) (A) (A) (A) (A)
                 (A) (A) (A) (A) (A) (A) (A) (A) (A) (A) (A) (A)
                 (A) (A) (A) (A) (A) (A) (A) (A) (A) (A) (A) (A)
                 (A) (A) (A) (A) (A) (A) (A) (A) (A) (A) (A) (A)
                 (A) (A) (A) (A) (A) (A) (A) (A) (A) (A) (A) (A)
                 (A) (A) (A) (A) (A) (A) (A) (A) (A) (A) (A) (A)
                 (A) (A) (A) (A) (A) (A) (A) (A) (A) (A) (A) (A)
                 (A) (A) (A) (A) (A) (A) (A) (A) (A) (A) (A) (A)
                 (A) (A) (A) (A) (A) (A) (A) (A) (A) (A) (A) (A)
                 (A) (A) (A) (A) (A) (A) (A) (A) (A) (A) (A) (A)
                 (A) (A) (A) (A) (A) (A) (A) (A) (A) (A) (A) (A)
                 (A) (A) (A) (A) (A) (A) (A) (A) (A) (A) (A) (A)
                 (A) (A) (A) (A) (A) (A) (A) (A) (A) (A) (A) (A)
                 (A) (A) (A) (A) (A) (A) (A) (A) (A) (A) (A) (A)
                 (A) (A) (A) (A) (A) (A) (A) (A) (A) (A) (A) (A)
                 (A) (A) (A) (A) (A) (A) (A) (A) (A) (A) (A) (A)
                 (A) (A) (A) (A) (A) (A) (A) (A) (A) (A) (A) (A)
                 (A) (A) (A) (A) (A) (A) (A) (A) (A) (A) (A) (A)
                 (A) (A) (A) (A) (A) (A) (A) (A) (A) (A) (A) (A)
                 (A) (A) (A) (A) (A) (A) (A) (A) (A)
 The electronic state is 1-A.
 Alpha  occ. eigenvalues -- -101.58786-101.58769-101.58330-101.56099-101.56046
 Alpha  occ. eigenvalues --  -10.28383 -10.28348 -10.27942 -10.25587 -10.25372
 Alpha  occ. eigenvalues --  -10.24404 -10.22918 -10.22901 -10.21936 -10.19993
 Alpha  occ. eigenvalues --  -10.18453 -10.17930  -9.50558  -9.50535  -9.49742
 Alpha  occ. eigenvalues --   -9.47543  -9.47490  -7.26974  -7.26950  -7.26234
 Alpha  occ. eigenvalues --   -7.26004  -7.25987  -7.25978  -7.25966  -7.25212
 Alpha  occ. eigenvalues --   -7.25180  -7.24018  -7.23962  -7.23028  -7.22982
 Alpha  occ. eigenvalues --   -7.22976  -7.22918  -0.95602  -0.92334  -0.91911
 Alpha  occ. eigenvalues --   -0.90809  -0.85980  -0.85252  -0.84992  -0.78962
 Alpha  occ. eigenvalues --   -0.78312  -0.75529  -0.73670  -0.65391  -0.64488
 Alpha  occ. eigenvalues --   -0.64145  -0.61649  -0.55206  -0.54251  -0.53733
 Alpha  occ. eigenvalues --   -0.49788  -0.49613  -0.49105  -0.48812  -0.46258
 Alpha  occ. eigenvalues --   -0.45992  -0.45916  -0.42845  -0.42221  -0.41917
 Alpha  occ. eigenvalues --   -0.40923  -0.40368  -0.39890  -0.39661  -0.35130
 Alpha  occ. eigenvalues --   -0.34992  -0.34642  -0.34138  -0.33769  -0.31377
 Alpha  occ. eigenvalues --   -0.30535  -0.29517  -0.28907  -0.28792  -0.26399
 Alpha  occ. eigenvalues --   -0.24936
 Alpha virt. eigenvalues --   -0.07522  -0.06703  -0.04932  -0.03705  -0.01551
 Alpha virt. eigenvalues --   -0.01286  -0.00871  -0.00733   0.00032   0.01407
 Alpha virt. eigenvalues --    0.01551   0.02594   0.03084   0.03547   0.04441
 Alpha virt. eigenvalues --    0.04581   0.05708   0.05854   0.05998   0.06323
 Alpha virt. eigenvalues --    0.06529   0.07349   0.07921   0.08303   0.08412
 Alpha virt. eigenvalues --    0.08778   0.08782   0.09130   0.09676   0.10594
 Alpha virt. eigenvalues --    0.10923   0.11134   0.11756   0.12070   0.12109
 Alpha virt. eigenvalues --    0.13130   0.13361   0.13380   0.13711   0.14291
 Alpha virt. eigenvalues --    0.14363   0.14952   0.15565   0.15687   0.16004
 Alpha virt. eigenvalues --    0.16747   0.17107   0.17228   0.17376   0.18048
 Alpha virt. eigenvalues --    0.18406   0.18921   0.19175   0.19639   0.20013
 Alpha virt. eigenvalues --    0.20106   0.20738   0.21073   0.21364   0.21778
 Alpha virt. eigenvalues --    0.22330   0.22645   0.23252   0.23422   0.23592
 Alpha virt. eigenvalues --    0.24405   0.24750   0.24990   0.25744   0.25884
 Alpha virt. eigenvalues --    0.26817   0.27040   0.27263   0.27795   0.28956
 Alpha virt. eigenvalues --    0.29609   0.29848   0.30646   0.31051   0.31477
 Alpha virt. eigenvalues --    0.31989   0.32965   0.33532   0.33936   0.36100
 Alpha virt. eigenvalues --    0.36773   0.37969   0.38350   0.40842   0.42217
 Alpha virt. eigenvalues --    0.42351   0.42434   0.43520   0.43743   0.44646
 Alpha virt. eigenvalues --    0.44895   0.45044   0.45230   0.45850   0.47243
 Alpha virt. eigenvalues --    0.47910   0.48628   0.49205   0.49525   0.50697
 Alpha virt. eigenvalues --    0.51223   0.51563   0.53380   0.53449   0.54528
 Alpha virt. eigenvalues --    0.55560   0.56222   0.56523   0.58418   0.58421
 Alpha virt. eigenvalues --    0.58861   0.59049   0.59405   0.59806   0.61221
 Alpha virt. eigenvalues --    0.61625   0.62815   0.63202   0.63575   0.65383
 Alpha virt. eigenvalues --    0.65641   0.67082   0.67094   0.67438   0.68147
 Alpha virt. eigenvalues --    0.68264   0.70684   0.71804   0.76747   0.77479
 Alpha virt. eigenvalues --    0.77708   0.81137   0.81338   0.81572   0.81823
 Alpha virt. eigenvalues --    0.82049   0.82605   0.83126   0.83895   0.83991
 Alpha virt. eigenvalues --    0.84119   0.85305   0.85347   0.85570   0.86437
 Alpha virt. eigenvalues --    0.86763   0.87020   0.87658   0.88062   0.88400
 Alpha virt. eigenvalues --    0.89042   0.90154   0.90579   0.92009   0.92439
 Alpha virt. eigenvalues --    0.92747   0.92846   0.93800   0.94385   0.94756
 Alpha virt. eigenvalues --    0.95042   0.96085   0.96702   0.97574   0.97783
 Alpha virt. eigenvalues --    0.98922   0.99355   1.01008   1.01389   1.01444
 Alpha virt. eigenvalues --    1.05953   1.07434   1.07655   1.08350   1.09667
 Alpha virt. eigenvalues --    1.10985   1.11565   1.12950   1.16254   1.17596
 Alpha virt. eigenvalues --    1.18410   1.19056   1.23414   1.24105   1.26219
 Alpha virt. eigenvalues --    1.26354   1.27638   1.28169   1.28276   1.28590
 Alpha virt. eigenvalues --    1.29959   1.32283   1.33705   1.36364   1.38585
 Alpha virt. eigenvalues --    1.43172   1.43981   1.46200   1.49047   1.49675
 Alpha virt. eigenvalues --    1.54125   1.54478   1.55476   1.55987   1.58053
 Alpha virt. eigenvalues --    1.58101   1.58877   1.59628   1.65004   1.65714
 Alpha virt. eigenvalues --    1.68121   1.69519   1.69687   1.74675   1.76711
 Alpha virt. eigenvalues --    1.78773   1.81202   1.81915   1.84017   1.85641
 Alpha virt. eigenvalues --    1.85861   1.85981   1.89482   1.91577   1.91779
 Alpha virt. eigenvalues --    1.92085   1.93803   1.94558   1.96291   1.96913
 Alpha virt. eigenvalues --    2.02041   2.02132   2.03599   2.06091   2.07316
 Alpha virt. eigenvalues --    2.07970   2.09604   2.15906   2.17245   2.19317
 Alpha virt. eigenvalues --    2.21693   2.23489   2.24253   2.24802   2.25311
 Alpha virt. eigenvalues --    2.26013   2.27255   2.29137   2.29200   2.33767
 Alpha virt. eigenvalues --    2.34494   2.34539   2.40230   2.40524   2.43248
 Alpha virt. eigenvalues --    2.43928   2.47503   2.49555   2.50902   2.52884
 Alpha virt. eigenvalues --    2.53970   2.54353   2.57013   2.59116   2.59871
 Alpha virt. eigenvalues --    2.61763   2.63126   2.63194   2.64626   2.67561
 Alpha virt. eigenvalues --    2.69217   2.72009   2.72696   2.73963   2.74309
 Alpha virt. eigenvalues --    2.74484   2.78620   2.79582   2.80134   2.80529
 Alpha virt. eigenvalues --    2.82757   2.84788   2.85806   2.90666   2.92465
 Alpha virt. eigenvalues --    2.97965   3.01851   3.04085   3.07166   3.10405
 Alpha virt. eigenvalues --    3.12307   3.14670   3.16699   3.19004   3.20964
 Alpha virt. eigenvalues --    3.23822   3.25235   3.33471   3.37032   3.39574
 Alpha virt. eigenvalues --    3.44001   3.54340   3.55819   3.66566   3.70760
 Alpha virt. eigenvalues --    3.72448   3.77446   3.88759   3.96562   4.07391
 Alpha virt. eigenvalues --    4.12385   4.20137   4.43912   4.78386   4.83618
 Alpha virt. eigenvalues --    9.75155   9.76057   9.80784   9.85765   9.86729
 Alpha virt. eigenvalues --   23.37294  23.53642  23.80378  23.83880  23.86146
 Alpha virt. eigenvalues --   23.90785  23.95876  24.00132  24.00774  24.05500
 Alpha virt. eigenvalues --   24.06299  24.13708  25.78455  25.80358  25.82680
 Alpha virt. eigenvalues --   25.82993  25.87692  26.08690  26.12752  26.17052
 Alpha virt. eigenvalues --   26.50575  26.54348  26.62470  26.68304  26.75128
 Alpha virt. eigenvalues --   26.76875  26.86461 215.74244 215.75036 215.80428
 Alpha virt. eigenvalues --  215.88043 215.89081
          Condensed to atoms (all electrons):
               1          2          3          4          5          6
     1  C   21.594741  -3.156794  -2.421281  -0.912678  -3.123548   3.370990
     2  C   -3.156794  20.222299  -0.135419  -0.530805  -1.327724  -3.898307
     3  C   -2.421281  -0.135419  14.445594   1.561923  -4.859091  -0.540881
     4  C   -0.912678  -0.530805   1.561923  22.046053  -7.192115  -8.569069
     5  C   -3.123548  -1.327724  -4.859091  -7.192115  24.894112   3.487396
     6  C    3.370990  -3.898307  -0.540881  -8.569069   3.487396  18.171692
     7  C    7.351438  -1.492178  -1.351582   0.183883  -2.140340  -0.895542
     8  C   -2.875970   0.714179  -0.074794   0.701860  -2.639979  -2.663257
     9  C   -5.720839  -0.318351   1.035056   0.002481  -1.295541  -1.509009
    10  C   -0.659510  -0.029374  -0.073480  -0.086606  -0.037939  -0.255818
    11  C   -3.803057  -0.626086  -0.769849   0.055551   1.031851  -0.150417
    12  C   -2.159886  -2.521262  -0.775770  -0.923183  -0.860800   1.187007
    13  H   -0.322299   0.477740   0.210675   0.015271  -0.083907  -0.017439
    14  H    0.111019   0.024780   0.230184   0.012997  -0.024191  -0.019740
    15  H   -0.242573  -0.005449  -0.098388   0.093435   0.054965   0.284435
    16  H    0.025412   0.003354  -0.001625   0.000149   0.000484   0.004479
    17  H    0.026644   0.002555   0.000695  -0.000591  -0.003048   0.002234
    18  Cl   0.479515   0.141817   0.201550   0.180396  -0.762311  -1.225839
    19  Cl  -0.970571   0.401407   0.332967  -0.290765  -0.278970   0.566117
    20  Cl  -0.029607  -0.017652  -0.001944  -0.000837   0.003547  -0.019567
    21  Cl  -0.097374  -0.294490   0.070765  -0.662080   0.383452  -0.036417
    22  Cl   0.701986  -0.940369  -0.835539  -0.187819   0.343473   0.245587
               7          8          9         10         11         12
     1  C    7.351438  -2.875970  -5.720839  -0.659510  -3.803057  -2.159886
     2  C   -1.492178   0.714179  -0.318351  -0.029374  -0.626086  -2.521262
     3  C   -1.351582  -0.074794   1.035056  -0.073480  -0.769849  -0.775770
     4  C    0.183883   0.701860   0.002481  -0.086606   0.055551  -0.923183
     5  C   -2.140340  -2.639979  -1.295541  -0.037939   1.031851  -0.860800
     6  C   -0.895542  -2.663257  -1.509009  -0.255818  -0.150417   1.187007
     7  C   15.778166   1.625176  -6.840333  -1.311521  -4.403968   0.174342
     8  C    1.625176  19.522549  -0.334094  -4.402778  -0.198766  -2.318555
     9  C   -6.840333  -0.334094  22.482191   0.617390  -4.563448   1.798250
    10  C   -1.311521  -4.402778   0.617390  17.283062   0.740744  -4.631047
    11  C   -4.403968  -0.198766  -4.563448   0.740744  20.019488  -1.977342
    12  C    0.174342  -2.318555   1.798250  -4.631047  -1.977342  19.947939
    13  H   -0.134858   0.120848   0.186564   0.043770  -0.017303  -0.019261
    14  H    0.023048  -0.002295  -0.003840  -0.000342   0.000769   0.005743
    15  H   -0.003952   0.036021  -0.009110   0.042913   0.189814   0.092589
    16  H    0.116914  -0.006811   0.225809   0.015637   0.001420  -0.009176
    17  H    0.098067  -0.008360   0.009259   0.025439   0.206555   0.016022
    18  Cl   0.160880   0.341980   0.375692  -0.370566  -0.187799  -0.779772
    19  Cl  -0.368761  -0.157969  -0.026451  -0.000059  -0.014941  -0.024078
    20  Cl  -0.127264  -0.060071   0.197095  -0.942984   0.327196  -0.151010
    21  Cl  -0.059390  -0.015751  -0.000852  -0.001560  -0.002606  -0.037985
    22  Cl   0.188889  -1.020679  -0.178136  -0.421977   0.288752   0.290641
              13         14         15         16         17         18
     1  C   -0.322299   0.111019  -0.242573   0.025412   0.026644   0.479515
     2  C    0.477740   0.024780  -0.005449   0.003354   0.002555   0.141817
     3  C    0.210675   0.230184  -0.098388  -0.001625   0.000695   0.201550
     4  C    0.015271   0.012997   0.093435   0.000149  -0.000591   0.180396
     5  C   -0.083907  -0.024191   0.054965   0.000484  -0.003048  -0.762311
     6  C   -0.017439  -0.019740   0.284435   0.004479   0.002234  -1.225839
     7  C   -0.134858   0.023048  -0.003952   0.116914   0.098067   0.160880
     8  C    0.120848  -0.002295   0.036021  -0.006811  -0.008360   0.341980
     9  C    0.186564  -0.003840  -0.009110   0.225809   0.009259   0.375692
    10  C    0.043770  -0.000342   0.042913   0.015637   0.025439  -0.370566
    11  C   -0.017303   0.000769   0.189814   0.001420   0.206555  -0.187799
    12  C   -0.019261   0.005743   0.092589  -0.009176   0.016022  -0.779772
    13  H    0.715035  -0.014164  -0.000382   0.000036   0.000000   0.002188
    14  H   -0.014164   0.524128   0.000133   0.000000   0.000000  -0.000173
    15  H   -0.000382   0.000133   0.687129  -0.000000   0.000030  -0.233513
    16  H    0.000036   0.000000  -0.000000   0.491295  -0.000249   0.000312
    17  H    0.000000   0.000000   0.000030  -0.000249   0.491107  -0.021461
    18  Cl   0.002188  -0.000173  -0.233513   0.000312  -0.021461  18.116224
    19  Cl   0.000421  -0.000794  -0.035634   0.000000   0.000012  -0.080727
    20  Cl   0.000220  -0.000001   0.000302  -0.011235  -0.011865  -0.014278
    21  Cl   0.000481  -0.009815   0.001083   0.000000   0.000000   0.003598
    22  Cl  -0.291742   0.001729   0.000947  -0.022572   0.000446  -0.024350
              19         20         21         22
     1  C   -0.970571  -0.029607  -0.097374   0.701986
     2  C    0.401407  -0.017652  -0.294490  -0.940369
     3  C    0.332967  -0.001944   0.070765  -0.835539
     4  C   -0.290765  -0.000837  -0.662080  -0.187819
     5  C   -0.278970   0.003547   0.383452   0.343473
     6  C    0.566117  -0.019567  -0.036417   0.245587
     7  C   -0.368761  -0.127264  -0.059390   0.188889
     8  C   -0.157969  -0.060071  -0.015751  -1.020679
     9  C   -0.026451   0.197095  -0.000852  -0.178136
    10  C   -0.000059  -0.942984  -0.001560  -0.421977
    11  C   -0.014941   0.327196  -0.002606   0.288752
    12  C   -0.024078  -0.151010  -0.037985   0.290641
    13  H    0.000421   0.000220   0.000481  -0.291742
    14  H   -0.000794  -0.000001  -0.009815   0.001729
    15  H   -0.035634   0.000302   0.001083   0.000947
    16  H    0.000000  -0.011235   0.000000  -0.022572
    17  H    0.000012  -0.011865   0.000000   0.000446
    18  Cl  -0.080727  -0.014278   0.003598  -0.024350
    19  Cl  17.643524  -0.000019  -0.199987   0.006313
    20  Cl  -0.000019  17.413056   0.000001  -0.012607
    21  Cl  -0.199987   0.000001  17.435529  -0.004025
    22  Cl   0.006313  -0.012607  -0.004025  18.208630
 Mulliken charges:
               1
     1  C   -1.165756
     2  C   -0.693869
     3  C   -0.149766
     4  C    0.502547
     5  C    0.430224
     6  C   -1.518634
     7  C   -0.571113
     8  C   -0.282484
     9  C   -0.129781
    10  C    0.456608
    11  C   -0.146556
    12  C   -0.323405
    13  H    0.128107
    14  H    0.140825
    15  H    0.145206
    16  H    0.166368
    17  H    0.166508
    18  Cl   0.696637
    19  Cl   0.498963
    20  Cl   0.459523
    21  Cl   0.527423
    22  Cl   0.662425
 Sum of Mulliken charges =  -0.00000
 Mulliken charges with hydrogens summed into heavy atoms:
               1
     1  C   -1.165756
     2  C   -0.565762
     3  C   -0.008942
     4  C    0.502547
     5  C    0.430224
     6  C   -1.373428
     7  C   -0.571113
     8  C   -0.282484
     9  C    0.036587
    10  C    0.456608
    11  C    0.019952
    12  C   -0.323405
    18  Cl   0.696637
    19  Cl   0.498963
    20  Cl   0.459523
    21  Cl   0.527423
    22  Cl   0.662425
 Electronic spatial extent (au):  <R**2>=           7862.3917
 Charge=             -0.0000 electrons
 Dipole moment (field-independent basis, Debye):
    X=             -3.0855    Y=              0.9494    Z=             -0.0000  Tot=              3.2283
 Quadrupole moment (field-independent basis, Debye-Ang):
   XX=           -142.6828   YY=           -125.5003   ZZ=           -135.6674
   XY=              2.2070   XZ=              0.0000   YZ=              0.0000
 Traceless Quadrupole moment (field-independent basis, Debye-Ang):
   XX=             -8.0660   YY=              9.1165   ZZ=             -1.0506
   XY=              2.2070   XZ=              0.0000   YZ=              0.0000
 Octapole moment (field-independent basis, Debye-Ang**2):
  XXX=            -38.9951  YYY=              4.4109  ZZZ=             -0.0000  XYY=              0.6686
  XXY=              4.3450  XXZ=             -0.0000  XZZ=              2.3914  YZZ=             -3.4473
  YYZ=             -0.0001  XYZ=             -0.0000
 Hexadecapole moment (field-independent basis, Debye-Ang**3):
 XXXX=          -8190.0722 YYYY=          -2088.7155 ZZZZ=           -157.8213 XXXY=            -29.0932
 XXXZ=              0.0003 YYYX=              8.8106 YYYZ=             -0.0001 ZZZX=              0.0001
 ZZZY=              0.0000 XXYY=          -1652.9899 XXZZ=          -1404.0646 YYZZ=           -404.0082
 XXYZ=              0.0002 YYXZ=              0.0000 ZZXY=             -7.9134
 N-N= 1.704902476049D+03 E-N=-9.946426279361D+03  KE= 2.754504039416D+03
 Calling FoFJK, ICntrl=      2127 FMM=F ISym2X=0 I1Cent= 0 IOpClX= 0 NMat=1 NMatS=1 NMatT=0.
 ***** Axes restored to original set *****
 -------------------------------------------------------------------
 Center     Atomic                   Forces (Hartrees/Bohr)
 Number     Number              X              Y              Z
 -------------------------------------------------------------------
      1        6          -0.013734931   -0.023311493    0.000146834
      2        6           0.006632651    0.055000985    0.008144702
      3        6          -0.021013046    0.000584765    0.007032777
      4        6           0.002172309    0.001953658   -0.000348972
      5        6           0.004814200   -0.008649887   -0.003210549
      6        6           0.044088849    0.032426190   -0.008435535
      7        6           0.027577842    0.048863577    0.000091455
      8        6          -0.020898118   -0.006398388    0.005683457
      9        6           0.000629060    0.004831836    0.000700142
     10        6           0.007903744    0.013612329   -0.000047361
     11        6           0.003899114    0.002820014   -0.000754817
     12        6           0.004141748   -0.021572221   -0.005416088
     13        1           0.004719191    0.051202514    0.008061522
     14        1           0.008496410    0.001635191   -0.002492068
     15        1           0.039898339    0.028775937   -0.007740688
     16        1           0.004036782   -0.007095260   -0.002662465
     17        1          -0.008169498    0.000045748    0.002700019
     18       17          -0.086134142   -0.061985557    0.016736401
     19       17          -0.002032283   -0.005857312   -0.000430484
     20       17           0.003557871    0.006048715   -0.000036224
     21       17           0.001474108   -0.005272336   -0.001475827
     22       17          -0.012060199   -0.107659005   -0.016246233
 -------------------------------------------------------------------
 Cartesian Forces:  Max     0.107659005 RMS     0.024950540

 GradGradGradGradGradGradGradGradGradGradGradGradGradGradGradGradGradGrad
 Berny optimization.
 FormGI is forming the generalized inverse of G from B-inverse, IUseBI=4.
 Internal  Forces:  Max     0.201772144 RMS     0.050330771
 Search for a local minimum.
 Step number   1 out of a maximum of  121
 All quantities printed in internal units (Hartrees-Bohrs-Radians)
 Mixed Optimization -- RFO/linear search
 Second derivative matrix not updated -- first step.
 ITU=  0
     Eigenvalues ---    0.00237   0.01506   0.01506   0.02070   0.02070
     Eigenvalues ---    0.02070   0.02070   0.02070   0.02070   0.02070
     Eigenvalues ---    0.02070   0.02070   0.02070   0.02070   0.02070
     Eigenvalues ---    0.02070   0.02070   0.02070   0.02070   0.16000
     Eigenvalues ---    0.16000   0.16000   0.16000   0.16000   0.22375
     Eigenvalues ---    0.23478   0.23491   0.23493   0.24610   0.25000
     Eigenvalues ---    0.25000   0.25000   0.25000   0.25000   0.25000
     Eigenvalues ---    0.25000   0.25000   0.28519   0.29539   0.29539
     Eigenvalues ---    0.29539   0.29539   0.29539   0.37230   0.37230
     Eigenvalues ---    0.37230   0.37230   0.37230   0.41393   0.41554
     Eigenvalues ---    0.41697   0.41716   0.45389   0.45389   0.45389
     Eigenvalues ---    0.45389   0.45389   0.45389   0.45389   0.45389
 RFO step:  Lambda=-4.07231609D-01 EMin= 2.36824243D-03
 Linear search not attempted -- first point.
 Maximum step size (   0.300) exceeded in Quadratic search.
    -- Step size scaled by   0.389
 Iteration  1 RMS(Cart)=  0.09721560 RMS(Int)=  0.00391595
 Iteration  2 RMS(Cart)=  0.00448047 RMS(Int)=  0.00015990
 Iteration  3 RMS(Cart)=  0.00000825 RMS(Int)=  0.00015986
 Iteration  4 RMS(Cart)=  0.00000000 RMS(Int)=  0.00015986
 Variable       Old X    -DE/DX   Delta X   Delta X   Delta X     New X
                                 (Linear)    (Quad)   (Total)
    R1        2.64826   0.03356   0.00000   0.01569   0.01583   2.66409
    R2        2.64826   0.03121   0.00000   0.01466   0.01481   2.66307
    R3        2.91018   0.14904   0.00000   0.08371   0.08371   2.99389
    R4        2.64826  -0.00724   0.00000  -0.00331  -0.00331   2.64495
    R5        2.02201  -0.04345   0.00000  -0.02168  -0.02168   2.00033
    R6        2.64826  -0.04159   0.00000  -0.01935  -0.01950   2.62877
    R7        2.02201   0.00888   0.00000   0.00443   0.00443   2.02644
    R8        2.64826  -0.03481   0.00000  -0.01625  -0.01640   2.63186
    R9        3.32592  -0.00380   0.00000  -0.00210  -0.00210   3.32382
   R10        2.64826  -0.00930   0.00000  -0.00416  -0.00416   2.64410
   R11        3.32592  -0.00416   0.00000  -0.00230  -0.00230   3.32362
   R12        2.02201  -0.04094   0.00000  -0.02043  -0.02043   2.00158
   R13        2.64826   0.14066   0.00000   0.06561   0.06592   2.71418
   R14        2.64826   0.13913   0.00000   0.06492   0.06523   2.71349
   R15        2.64826  -0.01151   0.00000  -0.00519  -0.00520   2.64306
   R16        3.32592  -0.00874   0.00000  -0.00484  -0.00484   3.32108
   R17        2.64826  -0.06264   0.00000  -0.03037  -0.03069   2.61758
   R18        2.02201   0.00858   0.00000   0.00428   0.00428   2.02629
   R19        2.64826  -0.06295   0.00000  -0.03052  -0.03084   2.61743
   R20        3.32592  -0.00702   0.00000  -0.00388  -0.00388   3.32203
   R21        2.64826  -0.01197   0.00000  -0.00541  -0.00542   2.64285
   R22        2.02201   0.00860   0.00000   0.00429   0.00429   2.02630
   R23        3.32592  -0.00869   0.00000  -0.00481  -0.00481   3.32111
    A1        2.09440  -0.11153   0.00000  -0.06511  -0.06480   2.02960
    A2        2.09440   0.06081   0.00000   0.03554   0.03538   2.12978
    A3        2.09440   0.05072   0.00000   0.02957   0.02942   2.12381
    A4        2.09440   0.05385   0.00000   0.03348   0.03363   2.12802
    A5        2.09440   0.00204   0.00000   0.00312   0.00305   2.09744
    A6        2.09440  -0.05589   0.00000  -0.03660  -0.03667   2.05772
    A7        2.09440   0.01474   0.00000   0.00770   0.00755   2.10195
    A8        2.09440  -0.00589   0.00000  -0.00283  -0.00276   2.09164
    A9        2.09440  -0.00886   0.00000  -0.00487  -0.00479   2.08960
   A10        2.09440  -0.02558   0.00000  -0.01717  -0.01747   2.07692
   A11        2.09440   0.00579   0.00000   0.00444   0.00460   2.09899
   A12        2.09440   0.01979   0.00000   0.01273   0.01288   2.10727
   A13        2.09440   0.01403   0.00000   0.00707   0.00692   2.10132
   A14        2.09440   0.00067   0.00000   0.00101   0.00109   2.09548
   A15        2.09440  -0.01470   0.00000  -0.00808  -0.00801   2.08639
   A16        2.09440   0.05449   0.00000   0.03403   0.03418   2.12857
   A17        2.09440   0.00142   0.00000   0.00264   0.00256   2.09696
   A18        2.09440  -0.05591   0.00000  -0.03667  -0.03674   2.05766
   A19        2.09440   0.07726   0.00000   0.04308   0.04274   2.13714
   A20        2.09440   0.06802   0.00000   0.03761   0.03727   2.13167
   A21        2.09440  -0.14528   0.00000  -0.08069  -0.08001   2.01438
   A22        2.09440   0.04037   0.00000   0.02640   0.02672   2.12112
   A23        2.09440   0.16140   0.00000   0.09425   0.09409   2.18849
   A24        2.09440  -0.20177   0.00000  -0.12066  -0.12082   1.97358
   A25        2.09440   0.03512   0.00000   0.01858   0.01825   2.11265
   A26        2.09440  -0.01781   0.00000  -0.00947  -0.00930   2.08509
   A27        2.09440  -0.01730   0.00000  -0.00912  -0.00895   2.08544
   A28        2.09440  -0.00629   0.00000  -0.00956  -0.01022   2.08418
   A29        2.09440   0.00312   0.00000   0.00477   0.00509   2.09949
   A30        2.09440   0.00317   0.00000   0.00480   0.00512   2.09952
   A31        2.09440   0.03425   0.00000   0.01802   0.01769   2.11208
   A32        2.09440  -0.01689   0.00000  -0.00885  -0.00868   2.08571
   A33        2.09440  -0.01736   0.00000  -0.00917  -0.00901   2.08539
   A34        2.09440   0.04184   0.00000   0.02725   0.02757   2.12196
   A35        2.09440   0.15715   0.00000   0.09175   0.09159   2.18598
   A36        2.09440  -0.19899   0.00000  -0.11900  -0.11916   1.97524
    D1        0.00000   0.00000   0.00000   0.00000   0.00000   0.00000
    D2        3.14159  -0.00000   0.00000   0.00000   0.00000   3.14159
    D3       -3.14159  -0.00000   0.00000  -0.00000  -0.00000  -3.14159
    D4       -0.00000  -0.00000   0.00000  -0.00000  -0.00000  -0.00000
    D5       -0.00000  -0.00000   0.00000  -0.00000  -0.00000  -0.00000
    D6        3.14159  -0.00000   0.00000  -0.00000  -0.00000   3.14159
    D7        3.14159   0.00000   0.00000   0.00000   0.00000   3.14159
    D8        0.00000  -0.00000   0.00000  -0.00000  -0.00000  -0.00000
    D9       -0.00000  -0.00000   0.00000  -0.00000  -0.00000  -0.00000
   D10        3.14159  -0.00000   0.00000  -0.00000  -0.00000   3.14159
   D11        3.14159  -0.00000   0.00000  -0.00000  -0.00000   3.14159
   D12       -0.00000  -0.00000   0.00000  -0.00000  -0.00000  -0.00000
   D13        0.00000  -0.00000   0.00000  -0.00000  -0.00000   0.00000
   D14        3.14159  -0.00000   0.00000  -0.00000  -0.00000   3.14159
   D15       -3.14159  -0.00000   0.00000  -0.00000  -0.00000  -3.14159
   D16        0.00000  -0.00000   0.00000  -0.00000  -0.00000   0.00000
   D17       -0.00000  -0.00000   0.00000   0.00000   0.00000  -0.00000
   D18        3.14159   0.00000   0.00000   0.00000   0.00000   3.14159
   D19        3.14159  -0.00000   0.00000  -0.00000  -0.00000   3.14159
   D20        0.00000  -0.00000   0.00000  -0.00000  -0.00000   0.00000
   D21        0.00000   0.00000   0.00000   0.00000   0.00000   0.00000
   D22       -3.14159   0.00000   0.00000   0.00000   0.00000  -3.14159
   D23       -3.14159  -0.00000   0.00000  -0.00000  -0.00000  -3.14159
   D24        0.00000   0.00000   0.00000   0.00000   0.00000   0.00000
   D25       -0.00000   0.00000   0.00000   0.00000   0.00000  -0.00000
   D26        3.14159   0.00000   0.00000   0.00000   0.00000   3.14159
   D27        3.14159   0.00000   0.00000  -0.00000  -0.00000   3.14159
   D28       -0.00000   0.00000   0.00000   0.00000   0.00000  -0.00000
   D29        3.14159   0.00000   0.00000   0.00000   0.00000   3.14159
   D30        0.00000   0.00000   0.00000   0.00000   0.00000   0.00000
   D31        0.00000   0.00000   0.00000   0.00000   0.00000   0.00000
   D32       -3.14159  -0.00000   0.00000  -0.00000  -0.00000  -3.14159
   D33       -3.14159  -0.00000   0.00000  -0.00000  -0.00000  -3.14159
   D34        0.00000  -0.00000   0.00000  -0.00000  -0.00000  -0.00000
   D35       -0.00000   0.00000   0.00000   0.00000   0.00000  -0.00000
   D36        3.14159  -0.00000   0.00000  -0.00000  -0.00000   3.14159
   D37       -0.00000  -0.00000   0.00000  -0.00000  -0.00000  -0.00000
   D38        3.14159  -0.00000   0.00000  -0.00000  -0.00000   3.14159
   D39        3.14159   0.00000   0.00000   0.00000   0.00000   3.14159
   D40       -0.00000   0.00000   0.00000   0.00000   0.00000  -0.00000
   D41       -0.00000   0.00000   0.00000   0.00000   0.00000  -0.00000
   D42       -3.14159  -0.00000   0.00000  -0.00000  -0.00000  -3.14159
   D43        3.14159   0.00000   0.00000   0.00000   0.00000   3.14159
   D44        0.00000   0.00000   0.00000   0.00000   0.00000   0.00000
   D45        0.00000   0.00000   0.00000   0.00000   0.00000   0.00000
   D46       -3.14159  -0.00000   0.00000  -0.00000  -0.00000  -3.14159
   D47        3.14159   0.00000   0.00000   0.00000   0.00000   3.14159
   D48        0.00000   0.00000   0.00000   0.00000   0.00000   0.00000
   D49        0.00000  -0.00000   0.00000  -0.00000  -0.00000   0.00000
   D50       -3.14159   0.00000   0.00000   0.00000   0.00000  -3.14159
   D51        3.14159   0.00000   0.00000   0.00000   0.00000   3.14159
   D52       -0.00000   0.00000   0.00000   0.00000   0.00000  -0.00000
         Item               Value     Threshold  Converged?
 Maximum Force            0.201772     0.000450     NO 
 RMS     Force            0.050331     0.000300     NO 
 Maximum Displacement     0.555429     0.001800     NO 
 RMS     Displacement     0.098614     0.001200     NO 
 Predicted change in Energy=-1.458827D-01
 GradGradGradGradGradGradGradGradGradGradGradGradGradGradGradGradGradGrad

                          Input orientation:                          
 ---------------------------------------------------------------------
 Center     Atomic      Atomic             Coordinates (Angstroms)
 Number     Number       Type             X           Y           Z
 ---------------------------------------------------------------------
      1          6           0        0.243055    1.254490   -0.004702
      2          6           0        1.584276    1.333951   -0.431650
      3          6           0        2.289033    2.543211   -0.436724
      4          6           0        1.675647    3.718021   -0.014001
      5          6           0        0.351039    3.671984    0.413749
      6          6           0       -0.350098    2.461138    0.417334
      7          6           0       -0.556923   -0.112985    0.002031
      8          6           0        0.031230   -1.351983   -0.424436
      9          6           0       -0.692982   -2.548455   -0.410547
     10          6           0       -2.010037   -2.581360    0.017187
     11          6           0       -2.618213   -1.410086    0.437532
     12          6           0       -1.923010   -0.196583    0.436399
     13          1           0        2.090019    0.464542   -0.761550
     14          1           0        3.308537    2.565276   -0.768460
     15          1           0       -1.355461    2.471648    0.750529
     16          1           0       -0.221015   -3.454516   -0.736208
     17          1           0       -3.637707   -1.433940    0.768935
     18         17           0       -2.889819    1.154846    1.008736
     19         17           0       -0.451864    5.140557    0.954078
     20         17           0       -2.901746   -4.096331    0.026444
     21         17           0        2.565480    5.235194   -0.022220
     22         17           0        1.678329   -1.550397   -1.004345
 ---------------------------------------------------------------------
                    Distance matrix (angstroms):
                    1          2          3          4          5
     1  C    0.000000
     2  C    1.409777   0.000000
     3  C    2.456312   1.399650   0.000000
     4  C    2.849805   2.422100   1.391084   0.000000
     5  C    2.455817   2.775243   2.398594   1.392723   0.000000
     6  C    1.409235   2.394395   2.775097   2.422694   1.399198
     7  C    1.584298   2.620389   3.917570   4.434099   3.914064
     8  C    2.648537   3.102619   4.502262   5.345793   5.103437
     9  C    3.937419   4.501047   5.900692   6.710914   6.361077
    10  C    4.448669   5.333873   6.704422   7.298455   6.695988
    11  C    3.934768   5.093735   6.361914   6.703625   5.885954
    12  C    2.644243   3.923914   5.100012   5.336414   4.487496
    13  H    2.146652   1.058528   2.113288   3.363876   3.833154
    14  H    3.420331   2.145386   1.072345   2.136436   3.371827
    15  H    2.146416   3.366595   3.833671   3.365348   2.113379
    16  H    4.788027   5.126523   6.508668   7.454139   7.241315
    17  H    4.783983   6.030898   7.238619   7.442272   6.488968
    18  Cl   3.294220   4.703650   5.553145   5.334729   4.146463
    19  Cl   4.062473   4.533913   4.024060   2.736255   1.758783
    20  Cl   6.206613   7.058485   8.440512   9.056393   8.430738
    21  Cl   4.608683   4.043525   2.737701   1.758887   2.745440
    22  Cl   3.305554   2.942156   4.177652   5.360691   5.571889
                    6          7          8          9         10
     6  C    0.000000
     7  C    2.615600   0.000000
     8  C    3.923503   1.436285   0.000000
     9  C    5.089103   2.473913   1.398650   0.000000
    10  C    5.323749   2.864375   2.423462   1.385162   0.000000
    11  C    4.486773   2.474075   2.786739   2.391995   1.385083
    12  C    3.088348   1.435917   2.427970   2.785963   2.422907
    13  H    3.366056   2.814764   2.766228   4.116606   5.166663
    14  H    3.847410   4.765346   5.118986   6.503115   7.442603
    15  H    1.059191   2.806820   4.233628   5.195037   5.147733
    16  H    6.028456   3.438555   2.140438   1.072266   2.128521
    17  H    5.109171   3.438647   3.859009   3.362251   2.128617
    18  Cl   2.916563   2.839587   4.107395   4.533751   3.964395
    19  Cl   2.734545   5.340144   6.654829   7.812890   7.933075
    20  Cl   7.047277   4.622320   4.041917   2.732311   1.757944
    21  Cl   4.048356   6.192980   7.069306   8.447103   9.057341
    22  Cl   4.714668   2.841706   1.757440   2.640422   3.963641
                   11         12         13         14         15
    11  C    0.000000
    12  C    1.398534   0.000000
    13  H    5.207636   4.239878   0.000000
    14  H    7.237700   6.037271   2.428563   0.000000
    15  H    4.093942   2.745950   4.264527   4.906015   0.000000
    16  H    3.362131   3.858228   4.549784   6.978300   6.214239
    17  H    1.072271   2.140519   6.225228   8.161350   4.523560
    18  Cl   2.641764   1.757455   5.330030   6.600558   2.038355
    19  Cl   6.918873   5.560335   5.591929   4.872354   2.825066
    20  Cl   2.732270   4.041538   6.807365   9.142019   6.786284
    21  Cl   8.440485   7.061237   4.850958   2.870099   4.858817
    22  Cl   4.534200   4.108308   2.070849   4.433056   5.334820
                   16         17         18         19         20
    16  H    0.000000
    17  H    4.245229   0.000000
    18  Cl   5.604780   2.705301   0.000000
    19  Cl   8.762741   7.308070   4.672527   0.000000
    20  Cl   2.860050   2.860290   5.342275   9.601174   0.000000
    21  Cl   9.153436   9.142363   6.890021   3.172772  10.815280
    22  Cl   2.702790   5.605205   5.677923   7.289856   5.340543
                   21         22
    21  Cl   0.000000
    22  Cl   6.913454   0.000000
 Stoichiometry    C12H5Cl5
 Framework group  C1[X(C12H5Cl5)]
 Deg. of freedom    60
 Full point group                 C1      NOp   1
 Largest Abelian subgroup         C1      NOp   1
 Largest concise Abelian subgroup C1      NOp   1
                         Standard orientation:                         
 ---------------------------------------------------------------------
 Center     Atomic      Atomic             Coordinates (Angstroms)
 Number     Number       Type             X           Y           Z
 ---------------------------------------------------------------------
      1          6           0        0.555731    0.350721    0.000001
      2          6           0        1.147607    1.630235   -0.000001
      3          6           0        2.536517    1.803291   -0.000002
      4          6           0        3.384028    0.700186   -0.000002
      5          6           0        2.829433   -0.577351    0.000002
      6          6           0        1.440459   -0.746184    0.000003
      7          6           0       -1.016063    0.152070    0.000002
      8          6           0       -1.932591    1.257914    0.000003
      9          6           0       -3.317215    1.060335    0.000003
     10          6           0       -3.856766   -0.215423    0.000001
     11          6           0       -3.010505   -1.311915   -0.000000
     12          6           0       -1.621371   -1.150028   -0.000000
     13          1           0        0.540442    2.497318   -0.000003
     14          1           0        2.951027    2.792283   -0.000004
     15          1           0        1.061490   -1.735259    0.000006
     16          1           0       -3.971276    1.910016    0.000004
     17          1           0       -3.426662   -2.300134   -0.000004
     18         17           0       -0.747429   -2.674781   -0.000005
     19         17           0        3.874895   -1.991680    0.000006
     20         17           0       -5.600199   -0.440834   -0.000002
     21         17           0        5.128769    0.922815   -0.000005
     22         17           0       -1.479012    2.955813    0.000001
 ---------------------------------------------------------------------
 Rotational constants (GHZ):           0.5518039           0.1428149           0.1134519
 Standard basis: 6-311+G(d,p) (5D, 7F)
 There are   461 symmetry adapted cartesian basis functions of A   symmetry.
 There are   444 symmetry adapted basis functions of A   symmetry.
   444 basis functions,   737 primitive gaussians,   461 cartesian basis functions
    81 alpha electrons       81 beta electrons
       nuclear repulsion energy      1675.1754188958 Hartrees.
 NAtoms=   22 NActive=   22 NUniq=   22 SFac= 1.00D+00 NAtFMM=   60 NAOKFM=F Big=F
 Integral buffers will be    131072 words long.
 Raffenetti 2 integral format.
 Two-electron integral symmetry is turned on.
 One-electron integrals computed using PRISM.
 NBasis=   444 RedAO= T EigKep=  1.59D-06  NBF=   444
 NBsUse=   438 1.00D-06 EigRej=  7.53D-07 NBFU=   438
 Initial guess from the checkpoint file:  "./Gau-415179.chk"
 B after Tr=    -0.000000    0.000000   -0.000000
         Rot=    1.000000    0.000000   -0.000000   -0.000261 Ang=   0.03 deg.
 ExpMin= 4.38D-02 ExpMax= 1.06D+05 ExpMxC= 3.62D+03 IAcc=3 IRadAn=         5 AccDes= 0.00D+00
 Harris functional with IExCor=  402 and IRadAn=       5 diagonalized for initial guess.
 HarFok:  IExCor=  402 AccDes= 0.00D+00 IRadAn=         5 IDoV= 1 UseB2=F ITyADJ=14
 ICtDFT=  3500011 ScaDFX=  1.000000  1.000000  1.000000  1.000000
 FoFCou: FMM=F IPFlag=           0 FMFlag=      100000 FMFlg1=           0
         NFxFlg=           0 DoJE=T BraDBF=F KetDBF=T FulRan=T
         wScrn=  0.000000 ICntrl=       500 IOpCl=  0 I1Cent=   200000004 NGrid=           0
         NMat0=    1 NMatS0=      1 NMatT0=    0 NMatD0=    1 NMtDS0=    0 NMtDT0=    0
 Petite list used in FoFCou.
 Requested convergence on RMS density matrix=1.00D-08 within  32 cycles.
 Requested convergence on MAX density matrix=1.00D-06.
 Requested convergence on             energy=1.00D-06.
 No special actions if energy rises.
 SCF Done:  E(RB3LYP) =  -2761.48156533     A.U. after   16 cycles
            NFock= 16  Conv=0.22D-08     -V/T= 2.0027
 QCSCF skips out because SCF is already converged.
 Calling FoFJK, ICntrl=      2127 FMM=F ISym2X=0 I1Cent= 0 IOpClX= 0 NMat=1 NMatS=1 NMatT=0.
 ***** Axes restored to original set *****
 -------------------------------------------------------------------
 Center     Atomic                   Forces (Hartrees/Bohr)
 Number     Number              X              Y              Z
 -------------------------------------------------------------------
      1        6          -0.012290828   -0.021492709    0.000012653
      2        6          -0.003546211    0.018611089    0.004663802
      3        6          -0.013474738   -0.005546510    0.003397730
      4        6           0.003430098    0.005010138   -0.000189316
      5        6          -0.002928629   -0.004212855    0.000173669
      6        6           0.016706423    0.005083967   -0.004549219
      7        6           0.017523506    0.031231957    0.000092576
      8        6          -0.021034505    0.005312772    0.007927845
      9        6           0.002048294    0.002347512   -0.000234036
     10        6           0.003176407    0.005428543   -0.000026900
     11        6           0.000962848    0.002925965    0.000232443
     12        6           0.014338951   -0.015986606   -0.007726578
     13        1           0.006710858    0.001136170   -0.001997587
     14        1           0.006605501    0.000248672   -0.002129499
     15        1          -0.001020287    0.007502311    0.001745028
     16        1           0.003988864   -0.004865931   -0.002227992
     17        1          -0.006190225    0.001148959    0.002255123
     18       17          -0.013520377   -0.011303599    0.002331532
     19       17          -0.001528404   -0.005840011   -0.000593234
     20       17           0.002784249    0.004703334   -0.000034019
     21       17           0.000058124   -0.006357590   -0.001213146
     22       17          -0.002799920   -0.015085576   -0.001910876
 -------------------------------------------------------------------
 Cartesian Forces:  Max     0.031231957 RMS     0.008628788

 GradGradGradGradGradGradGradGradGradGradGradGradGradGradGradGradGradGrad
 Berny optimization.
 Using GEDIIS/GDIIS optimizer.
 FormGI is forming the generalized inverse of G from B-inverse, IUseBI=4.
 Internal  Forces:  Max     0.035832509 RMS     0.007810341
 Search for a local minimum.
 Step number   2 out of a maximum of  121
 All quantities printed in internal units (Hartrees-Bohrs-Radians)
 Mixed Optimization -- RFO/linear search
 Update second derivatives using D2CorX and points    1    2
 DE= -7.86D-02 DEPred=-1.46D-01 R= 5.39D-01
 TightC=F SS=  1.41D+00  RLast= 3.00D-01 DXNew= 5.0454D-01 8.9996D-01
 Trust test= 5.39D-01 RLast= 3.00D-01 DXMaxT set to 5.05D-01
 ITU=  1  0
 Use linear search instead of GDIIS.
     Eigenvalues ---    0.00237   0.01460   0.01468   0.02070   0.02070
     Eigenvalues ---    0.02070   0.02070   0.02070   0.02070   0.02070
     Eigenvalues ---    0.02070   0.02070   0.02070   0.02070   0.02070
     Eigenvalues ---    0.02070   0.02070   0.02070   0.02070   0.15999
     Eigenvalues ---    0.16000   0.16000   0.16000   0.16088   0.22374
     Eigenvalues ---    0.23454   0.23481   0.23631   0.24626   0.24943
     Eigenvalues ---    0.25000   0.25000   0.25000   0.25000   0.25000
     Eigenvalues ---    0.25000   0.27843   0.29529   0.29536   0.29539
     Eigenvalues ---    0.29539   0.29539   0.36297   0.37205   0.37230
     Eigenvalues ---    0.37230   0.37230   0.38327   0.41239   0.41429
     Eigenvalues ---    0.41834   0.45066   0.45332   0.45389   0.45389
     Eigenvalues ---    0.45389   0.45389   0.45389   0.45389   1.57560
 RFO step:  Lambda=-1.32769930D-02 EMin= 2.36824243D-03
 Quartic linear search produced a step of  0.34802.
 Iteration  1 RMS(Cart)=  0.06204857 RMS(Int)=  0.00214002
 Iteration  2 RMS(Cart)=  0.00250811 RMS(Int)=  0.00012349
 Iteration  3 RMS(Cart)=  0.00000142 RMS(Int)=  0.00012349
 Iteration  4 RMS(Cart)=  0.00000000 RMS(Int)=  0.00012349
 Variable       Old X    -DE/DX   Delta X   Delta X   Delta X     New X
                                 (Linear)    (Quad)   (Total)
    R1        2.66409   0.00248   0.00551  -0.00819  -0.00261   2.66148
    R2        2.66307   0.00140   0.00515  -0.00994  -0.00473   2.65834
    R3        2.99389  -0.00570   0.02913  -0.11370  -0.08457   2.90932
    R4        2.64495  -0.00953  -0.00115  -0.02457  -0.02571   2.61925
    R5        2.00033   0.00290  -0.00754   0.03201   0.02446   2.02479
    R6        2.62877  -0.00804  -0.00678  -0.00457  -0.01142   2.61735
    R7        2.02644   0.00694   0.00154   0.01979   0.02133   2.04777
    R8        2.63186  -0.00281  -0.00571   0.00780   0.00202   2.63388
    R9        3.32382  -0.00545  -0.00073  -0.02159  -0.02232   3.30150
   R10        2.64410  -0.00883  -0.00145  -0.02103  -0.02249   2.62161
   R11        3.32362  -0.00436  -0.00080  -0.01663  -0.01743   3.30619
   R12        2.00158   0.00159  -0.00711   0.02619   0.01908   2.02066
   R13        2.71418   0.00787   0.02294  -0.04037  -0.01716   2.69703
   R14        2.71349   0.01054   0.02270  -0.03184  -0.00891   2.70458
   R15        2.64306  -0.00726  -0.00181  -0.01593  -0.01769   2.62537
   R16        3.32108  -0.00029  -0.00168   0.00379   0.00210   3.32318
   R17        2.61758  -0.01216  -0.01068  -0.00683  -0.01774   2.59983
   R18        2.02629   0.00654   0.00149   0.01854   0.02003   2.04632
   R19        2.61743  -0.01191  -0.01073  -0.00583  -0.01684   2.60059
   R20        3.32203  -0.00547  -0.00135  -0.01980  -0.02115   3.30088
   R21        2.64285  -0.00669  -0.00188  -0.01382  -0.01575   2.62710
   R22        2.02630   0.00656   0.00149   0.01858   0.02007   2.04637
   R23        3.32111  -0.00049  -0.00167   0.00286   0.00119   3.32230
    A1        2.02960  -0.01490  -0.02255  -0.00689  -0.02929   2.00030
    A2        2.12978   0.00461   0.01231  -0.01428  -0.00204   2.12774
    A3        2.12381   0.01029   0.01024   0.02117   0.03134   2.15515
    A4        2.12802   0.00764   0.01170   0.00498   0.01676   2.14478
    A5        2.09744   0.00266   0.00106   0.02438   0.02539   2.12284
    A6        2.05772  -0.01030  -0.01276  -0.02935  -0.04215   2.01557
    A7        2.10195   0.00330   0.00263   0.00719   0.00976   2.11170
    A8        2.09164  -0.00154  -0.00096  -0.00395  -0.00488   2.08676
    A9        2.08960  -0.00176  -0.00167  -0.00323  -0.00487   2.08473
   A10        2.07692  -0.00575  -0.00608  -0.01351  -0.01973   2.05719
   A11        2.09899  -0.00293   0.00160  -0.01850  -0.01683   2.08216
   A12        2.10727   0.00868   0.00448   0.03201   0.03656   2.14384
   A13        2.10132   0.00221   0.00241   0.00258   0.00490   2.10622
   A14        2.09548   0.00590   0.00038   0.02967   0.03009   2.12558
   A15        2.08639  -0.00811  -0.00279  -0.03225  -0.03500   2.05139
   A16        2.12857   0.00750   0.01189   0.00566   0.01761   2.14618
   A17        2.09696   0.00386   0.00089   0.03310   0.03397   2.13093
   A18        2.05766  -0.01136  -0.01279  -0.03876  -0.05157   2.00608
   A19        2.13714   0.00751   0.01488  -0.01079   0.00380   2.14094
   A20        2.13167   0.01912   0.01297   0.05452   0.06721   2.19888
   A21        2.01438  -0.02663  -0.02785  -0.04373  -0.07102   1.94336
   A22        2.12112   0.01429   0.00930   0.04752   0.05714   2.17826
   A23        2.18849   0.01853   0.03275  -0.00796   0.02463   2.21312
   A24        1.97358  -0.03281  -0.04205  -0.03957  -0.08177   1.89181
   A25        2.11265  -0.00004   0.00635  -0.02408  -0.01793   2.09472
   A26        2.08509  -0.00131  -0.00324   0.00189  -0.00124   2.08385
   A27        2.08544   0.00135  -0.00312   0.02218   0.01917   2.10462
   A28        2.08418  -0.00096  -0.00356  -0.00015  -0.00424   2.07994
   A29        2.09949   0.00045   0.00177  -0.00003   0.00201   2.10149
   A30        2.09952   0.00050   0.00178   0.00018   0.00223   2.10175
   A31        2.11208   0.00069   0.00616  -0.01850  -0.01267   2.09941
   A32        2.08571   0.00099  -0.00302   0.01942   0.01657   2.10228
   A33        2.08539  -0.00168  -0.00313  -0.00092  -0.00389   2.08150
   A34        2.12196   0.01265   0.00959   0.03893   0.04872   2.17068
   A35        2.18598   0.02318   0.03187   0.01821   0.04999   2.23597
   A36        1.97524  -0.03583  -0.04147  -0.05714  -0.09871   1.87653
    D1        0.00000  -0.00000   0.00000  -0.00000  -0.00000   0.00000
    D2        3.14159   0.00000   0.00000   0.00000   0.00000  -3.14159
    D3       -3.14159  -0.00000  -0.00000  -0.00000  -0.00000   3.14159
    D4       -0.00000  -0.00000  -0.00000   0.00000   0.00000  -0.00000
    D5       -0.00000   0.00000  -0.00000   0.00000   0.00000  -0.00000
    D6        3.14159  -0.00000  -0.00000  -0.00000  -0.00000   3.14159
    D7        3.14159   0.00000   0.00000   0.00000   0.00000  -3.14159
    D8       -0.00000  -0.00000  -0.00000  -0.00000  -0.00000  -0.00000
    D9       -0.00000  -0.00000  -0.00000  -0.00001  -0.00001  -0.00001
   D10        3.14159  -0.00000  -0.00000  -0.00001  -0.00001   3.14158
   D11        3.14159  -0.00000  -0.00000  -0.00001  -0.00001   3.14158
   D12       -0.00000  -0.00000  -0.00000  -0.00001  -0.00001  -0.00001
   D13        0.00000  -0.00000  -0.00000  -0.00000  -0.00000  -0.00000
   D14        3.14159   0.00000  -0.00000   0.00000   0.00000   3.14159
   D15       -3.14159  -0.00000  -0.00000  -0.00000  -0.00000  -3.14159
   D16        0.00000  -0.00000  -0.00000  -0.00000  -0.00000   0.00000
   D17       -0.00000   0.00000   0.00000   0.00000   0.00000  -0.00000
   D18        3.14159  -0.00000   0.00000  -0.00000  -0.00000   3.14159
   D19        3.14159   0.00000  -0.00000   0.00000   0.00000   3.14159
   D20        0.00000  -0.00000  -0.00000  -0.00000  -0.00000  -0.00000
   D21        0.00000  -0.00000   0.00000  -0.00000  -0.00000   0.00000
   D22       -3.14159  -0.00000   0.00000  -0.00000  -0.00000  -3.14159
   D23       -3.14159  -0.00000  -0.00000   0.00000   0.00000  -3.14159
   D24        0.00000   0.00000   0.00000   0.00000   0.00000   0.00000
   D25       -0.00000   0.00000   0.00000   0.00000   0.00000  -0.00000
   D26        3.14159   0.00000   0.00000   0.00000   0.00000  -3.14159
   D27        3.14159   0.00000  -0.00000   0.00000   0.00000   3.14159
   D28       -0.00000   0.00000   0.00000   0.00000   0.00000   0.00000
   D29        3.14159   0.00000   0.00000   0.00000   0.00000  -3.14159
   D30        0.00000  -0.00000   0.00000  -0.00000  -0.00000   0.00000
   D31        0.00000   0.00000   0.00000   0.00000   0.00000   0.00000
   D32       -3.14159  -0.00000  -0.00000  -0.00000  -0.00000   3.14159
   D33       -3.14159  -0.00000  -0.00000  -0.00000  -0.00000   3.14159
   D34       -0.00000  -0.00000  -0.00000  -0.00000  -0.00000  -0.00000
   D35       -0.00000   0.00000   0.00000   0.00000   0.00000  -0.00000
   D36        3.14159  -0.00000  -0.00000  -0.00000  -0.00000   3.14159
   D37       -0.00000  -0.00000  -0.00000  -0.00000  -0.00000  -0.00000
   D38        3.14159  -0.00000  -0.00000  -0.00000  -0.00000   3.14159
   D39        3.14159   0.00000   0.00000   0.00000   0.00000  -3.14159
   D40       -0.00000   0.00000   0.00000   0.00000   0.00000   0.00000
   D41       -0.00000   0.00000   0.00000   0.00000   0.00000   0.00000
   D42       -3.14159  -0.00000  -0.00000  -0.00000  -0.00000  -3.14159
   D43        3.14159   0.00000   0.00000   0.00000   0.00000  -3.14159
   D44        0.00000  -0.00000   0.00000  -0.00000  -0.00000   0.00000
   D45        0.00000   0.00000   0.00000   0.00000   0.00000   0.00000
   D46       -3.14159  -0.00000  -0.00000  -0.00000  -0.00000  -3.14159
   D47        3.14159   0.00000   0.00000   0.00000   0.00000  -3.14159
   D48        0.00000  -0.00000   0.00000  -0.00000  -0.00000   0.00000
   D49        0.00000  -0.00000  -0.00000  -0.00000  -0.00000  -0.00000
   D50       -3.14159  -0.00000   0.00000  -0.00000  -0.00000  -3.14159
   D51        3.14159   0.00000   0.00000   0.00000   0.00000   3.14159
   D52       -0.00000   0.00000   0.00000   0.00000   0.00000   0.00000
         Item               Value     Threshold  Converged?
 Maximum Force            0.035833     0.000450     NO 
 RMS     Force            0.007810     0.000300     NO 
 Maximum Displacement     0.298055     0.001800     NO 
 RMS     Displacement     0.062273     0.001200     NO 
 Predicted change in Energy=-3.384796D-03
 GradGradGradGradGradGradGradGradGradGradGradGradGradGradGradGradGradGrad

                          Input orientation:                          
 ---------------------------------------------------------------------
 Center     Atomic      Atomic             Coordinates (Angstroms)
 Number     Number       Type             X           Y           Z
 ---------------------------------------------------------------------
      1          6           0        0.208901    1.270311    0.009526
      2          6           0        1.548747    1.336953   -0.419370
      3          6           0        2.275461    2.517077   -0.437153
      4          6           0        1.706821    3.711061   -0.025581
      5          6           0        0.381879    3.686915    0.406384
      6          6           0       -0.336573    2.500227    0.420214
      7          6           0       -0.577345   -0.053285    0.019977
[...]
                 (A) (A) (A) (A) (A) (A) (A) (A) (A) (A) (A) (A)
                 (A) (A) (A) (A) (A) (A) (A) (A) (A)
       Virtual   (A) (A) (A) (A) (A) (A) (A) (A) (A) (A) (A) (A)
                 (A) (A) (A) (A) (A) (A) (A) (A) (A) (A) (A) (A)
                 (A) (A) (A) (A) (A) (A) (A) (A) (A) (A) (A) (A)
                 (A) (A) (A) (A) (A) (A) (A) (A) (A) (A) (A) (A)
                 (A) (A) (A) (A) (A) (A) (A) (A) (A) (A) (A) (A)
                 (A) (A) (A) (A) (A) (A) (A) (A) (A) (A) (A) (A)
                 (A) (A) (A) (A) (A) (A) (A) (A) (A) (A) (A) (A)
                 (A) (A) (A) (A) (A) (A) (A) (A) (A) (A) (A) (A)
                 (A) (A) (A) (A) (A) (A) (A) (A) (A) (A) (A) (A)
                 (A) (A) (A) (A) (A) (A) (A) (A) (A) (A) (A) (A)
                 (A) (A) (A) (A) (A) (A) (A) (A) (A) (A) (A) (A)
                 (A) (A) (A) (A) (A) (A) (A) (A) (A) (A) (A) (A)
                 (A) (A) (A) (A) (A) (A) (A) (A) (A) (A) (A) (A)
                 (A) (A) (A) (A) (A) (A) (A) (A) (A) (A) (A) (A)
                 (A) (A) (A) (A) (A) (A) (A) (A) (A) (A) (A) (A)
                 (A) (A) (A) (A) (A) (A) (A) (A) (A) (A) (A) (A)
                 (A) (A) (A) (A) (A) (A) (A) (A) (A) (A) (A) (A)
                 (A) (A) (A) (A) (A) (A) (A) (A) (A) (A) (A) (A)
                 (A) (A) (A) (A) (A) (A) (A) (A) (A) (A) (A) (A)
                 (A) (A) (A) (A) (A) (A) (A) (A) (A) (A) (A) (A)
                 (A) (A) (A) (A) (A) (A) (A) (A) (A) (A) (A) (A)
                 (A) (A) (A) (A) (A) (A) (A) (A) (A) (A) (A) (A)
                 (A) (A) (A) (A) (A) (A) (A) (A) (A) (A) (A) (A)
                 (A) (A) (A) (A) (A) (A) (A) (A) (A) (A) (A) (A)
                 (A) (A) (A) (A) (A) (A) (A) (A) (A) (A) (A) (A)
                 (A) (A) (A) (A) (A) (A) (A) (A) (A) (A) (A) (A)
                 (A) (A) (A) (A) (A) (A) (A) (A) (A) (A) (A) (A)
                 (A) (A) (A) (A) (A) (A) (A) (A) (A) (A) (A) (A)
                 (A) (A) (A) (A) (A) (A) (A) (A) (A) (A) (A) (A)
                 (A) (A) (A) (A) (A) (A) (A) (A) (A) (A) (A) (A)
 The electronic state is 1-A.
 Alpha  occ. eigenvalues -- -101.57757-101.57605-101.57605-101.56892-101.56872
 Alpha  occ. eigenvalues --  -10.27512 -10.27512 -10.27286 -10.26355 -10.26296
 Alpha  occ. eigenvalues --  -10.23476 -10.22124 -10.21988 -10.21987 -10.21106
 Alpha  occ. eigenvalues --  -10.20978 -10.20669  -9.49210  -9.49073  -9.49072
 Alpha  occ. eigenvalues --   -9.48350  -9.48331  -7.25685  -7.25547  -7.25547
 Alpha  occ. eigenvalues --   -7.24831  -7.24812  -7.24688  -7.24648  -7.24557
 Alpha  occ. eigenvalues --   -7.24556  -7.24497  -7.24497  -7.23832  -7.23811
 Alpha  occ. eigenvalues --   -7.23774  -7.23755  -0.94767  -0.93130  -0.90159
 Alpha  occ. eigenvalues --   -0.89916  -0.87287  -0.86276  -0.83575  -0.79484
 Alpha  occ. eigenvalues --   -0.76814  -0.76707  -0.73846  -0.65213  -0.64180
 Alpha  occ. eigenvalues --   -0.63890  -0.61111  -0.55735  -0.53552  -0.52294
 Alpha  occ. eigenvalues --   -0.51523  -0.49317  -0.48326  -0.46764  -0.46134
 Alpha  occ. eigenvalues --   -0.45820  -0.44515  -0.43460  -0.42949  -0.41462
 Alpha  occ. eigenvalues --   -0.39817  -0.39524  -0.38801  -0.38425  -0.36058
 Alpha  occ. eigenvalues --   -0.35539  -0.34331  -0.34251  -0.34047  -0.33000
 Alpha  occ. eigenvalues --   -0.32909  -0.32074  -0.27940  -0.27691  -0.27665
 Alpha  occ. eigenvalues --   -0.26452
 Alpha virt. eigenvalues --   -0.05992  -0.05613  -0.04760  -0.04252  -0.03431
 Alpha virt. eigenvalues --   -0.01904  -0.00647   0.00574   0.01140   0.01238
 Alpha virt. eigenvalues --    0.01812   0.01879   0.02368   0.03163   0.03888
 Alpha virt. eigenvalues --    0.04397   0.05307   0.05391   0.05887   0.06212
 Alpha virt. eigenvalues --    0.06574   0.06704   0.07850   0.08358   0.08487
 Alpha virt. eigenvalues --    0.08664   0.08844   0.08927   0.09967   0.10620
 Alpha virt. eigenvalues --    0.10853   0.10885   0.11401   0.11455   0.11588
 Alpha virt. eigenvalues --    0.12247   0.12504   0.12629   0.12809   0.13572
 Alpha virt. eigenvalues --    0.14439   0.14531   0.14910   0.14913   0.15425
 Alpha virt. eigenvalues --    0.15750   0.16038   0.17115   0.17439   0.17601
 Alpha virt. eigenvalues --    0.17871   0.18339   0.18420   0.18783   0.19255
 Alpha virt. eigenvalues --    0.19974   0.19974   0.20651   0.20961   0.21135
 Alpha virt. eigenvalues --    0.21522   0.21739   0.22604   0.22635   0.23264
 Alpha virt. eigenvalues --    0.23477   0.23636   0.23998   0.24628   0.25217
 Alpha virt. eigenvalues --    0.25514   0.25997   0.26138   0.26176   0.27266
 Alpha virt. eigenvalues --    0.27426   0.28069   0.28346   0.28474   0.28781
 Alpha virt. eigenvalues --    0.29539   0.29915   0.30226   0.30586   0.31458
 Alpha virt. eigenvalues --    0.32205   0.33023   0.33046   0.35984   0.37292
 Alpha virt. eigenvalues --    0.39197   0.40596   0.43505   0.44035   0.44443
 Alpha virt. eigenvalues --    0.44697   0.44852   0.45429   0.45645   0.45691
 Alpha virt. eigenvalues --    0.46634   0.46978   0.47584   0.47947   0.48713
 Alpha virt. eigenvalues --    0.49500   0.50391   0.51196   0.51902   0.53942
 Alpha virt. eigenvalues --    0.54089   0.55622   0.55873   0.56524   0.57094
 Alpha virt. eigenvalues --    0.58000   0.58112   0.59073   0.59579   0.60509
 Alpha virt. eigenvalues --    0.61552   0.61629   0.62652   0.63812   0.64254
 Alpha virt. eigenvalues --    0.64904   0.65199   0.65825   0.66424   0.66609
 Alpha virt. eigenvalues --    0.67420   0.67779   0.68277   0.69750   0.69961
 Alpha virt. eigenvalues --    0.70567   0.71507   0.73679   0.74849   0.79168
 Alpha virt. eigenvalues --    0.79695   0.81323   0.81907   0.82844   0.83017
 Alpha virt. eigenvalues --    0.83134   0.83586   0.83962   0.84036   0.84763
 Alpha virt. eigenvalues --    0.84960   0.84990   0.85408   0.85537   0.85610
 Alpha virt. eigenvalues --    0.86354   0.86448   0.86892   0.88581   0.89230
 Alpha virt. eigenvalues --    0.89683   0.90568   0.91137   0.91977   0.92223
 Alpha virt. eigenvalues --    0.93827   0.94493   0.94963   0.95078   0.95271
 Alpha virt. eigenvalues --    0.95590   0.96001   0.96809   0.97604   0.98533
 Alpha virt. eigenvalues --    0.98654   1.01981   1.02266   1.02977   1.03002
 Alpha virt. eigenvalues --    1.05962   1.06540   1.08279   1.10191   1.11382
 Alpha virt. eigenvalues --    1.14974   1.18033   1.18714   1.20421   1.22957
 Alpha virt. eigenvalues --    1.22993   1.23912   1.24002   1.25372   1.27744
 Alpha virt. eigenvalues --    1.28352   1.29891   1.30232   1.31531   1.31761
 Alpha virt. eigenvalues --    1.32583   1.33866   1.40045   1.41129   1.43869
 Alpha virt. eigenvalues --    1.47823   1.49251   1.52356   1.53953   1.54131
 Alpha virt. eigenvalues --    1.55149   1.56358   1.56552   1.58113   1.59402
 Alpha virt. eigenvalues --    1.61456   1.64242   1.65564   1.67366   1.69065
 Alpha virt. eigenvalues --    1.70062   1.74366   1.77160   1.77645   1.80568
 Alpha virt. eigenvalues --    1.81177   1.82314   1.83130   1.85879   1.87041
 Alpha virt. eigenvalues --    1.88407   1.92452   1.92708   1.92758   1.94487
 Alpha virt. eigenvalues --    1.95374   1.95388   1.96795   1.99835   2.01750
 Alpha virt. eigenvalues --    2.04237   2.04738   2.04793   2.10576   2.12376
 Alpha virt. eigenvalues --    2.13395   2.13902   2.17887   2.22854   2.24307
 Alpha virt. eigenvalues --    2.25420   2.25771   2.26434   2.26805   2.27807
 Alpha virt. eigenvalues --    2.29428   2.30887   2.33270   2.35653   2.38212
 Alpha virt. eigenvalues --    2.40087   2.40711   2.41650   2.45018   2.45988
 Alpha virt. eigenvalues --    2.48796   2.51051   2.52007   2.53188   2.54605
 Alpha virt. eigenvalues --    2.54878   2.57106   2.58338   2.61528   2.63739
 Alpha virt. eigenvalues --    2.66820   2.68626   2.69335   2.69707   2.70849
 Alpha virt. eigenvalues --    2.71553   2.72885   2.73937   2.74976   2.75477
 Alpha virt. eigenvalues --    2.76111   2.77992   2.82908   2.83065   2.83570
 Alpha virt. eigenvalues --    2.84167   2.88112   2.89866   2.96197   2.99568
 Alpha virt. eigenvalues --    3.08699   3.09434   3.09463   3.12290   3.13337
 Alpha virt. eigenvalues --    3.14100   3.18395   3.20917   3.21221   3.27503
 Alpha virt. eigenvalues --    3.32212   3.33034   3.42026   3.47296   3.52042
 Alpha virt. eigenvalues --    3.59348   3.68223   3.69597   3.73911   3.80531
 Alpha virt. eigenvalues --    3.86148   3.97712   4.07012   4.07070   4.12299
 Alpha virt. eigenvalues --    4.33777   4.79741   4.81944   9.75881   9.76631
 Alpha virt. eigenvalues --    9.79392   9.80069   9.82921  23.38848  23.54605
 Alpha virt. eigenvalues --   23.84015  23.85109  23.88596  23.89541  23.95477
 Alpha virt. eigenvalues --   24.02645  24.03113  24.07370  24.10043  24.15764
 Alpha virt. eigenvalues --   25.78579  25.81386  25.84295  25.87073  25.91377
 Alpha virt. eigenvalues --   26.08052  26.09420  26.19004  26.24550  26.32005
 Alpha virt. eigenvalues --   26.52128  26.58030  26.60915  26.77995  26.80172
 Alpha virt. eigenvalues --  215.74972 215.75692 215.78975 215.79617 215.83369
          Condensed to atoms (all electrons):
               1          2          3          4          5          6
     1  C   34.269455   3.237605  -2.283592  -4.911219 -10.112123   6.839162
     2  C    3.237605  26.517240  -2.741926   0.616734  -6.708651  -2.104919
     3  C   -2.283592  -2.741926  32.582392  -7.285021  -2.927059 -18.501372
     4  C   -4.911219   0.616734  -7.285021  33.428282  -6.141570  -2.826093
     5  C  -10.112123  -6.708651  -2.927059  -6.141570  41.513130 -22.590849
     6  C    6.839162  -2.104919 -18.501372  -2.826093 -22.590849  67.906002
     7  C   -3.535025  -6.783485   6.487055  -4.711712  11.626760 -17.625241
     8  C   -4.020399  -1.996547   0.518973  -0.499918   0.379416  -1.330925
     9  C   -4.002923  -0.964449   0.201418  -0.112840   0.132530  -0.525635
    10  C   -1.097814  -0.388985   0.063106  -0.081798   0.189415  -0.344857
    11  C   -4.001321  -0.960793   0.201052  -0.112556   0.131384  -0.527210
    12  C   -4.012324  -1.990809   0.517258  -0.498697   0.374030  -1.326171
    13  H    0.010616   0.199298   0.001442  -0.072447   0.010553  -0.042078
    14  H    0.022772  -0.033611   0.262632   0.065395   0.054096  -0.022148
    15  H    0.011625  -0.016296   0.034284  -0.008404   0.184945  -0.153995
    16  H    0.038995   0.002328  -0.000393   0.000158  -0.001082  -0.000037
    17  H    0.038997   0.002324  -0.000393   0.000158  -0.001082  -0.000033
    18  Cl  -0.112099   0.229802   0.134159  -0.032748   0.325209  -0.190852
    19  Cl  -0.334447   0.213939   0.766972  -0.063244  -1.353087   0.047368
    20  Cl  -0.114119  -0.028872   0.005210  -0.003157   0.015564  -0.023622
    21  Cl  -0.268987   0.409093  -0.887521  -1.154233   0.210313   1.232789
    22  Cl  -0.112457   0.230867   0.133532  -0.032625   0.325571  -0.191685
               7          8          9         10         11         12
     1  C   -3.535025  -4.020399  -4.002923  -1.097814  -4.001321  -4.012324
     2  C   -6.783485  -1.996547  -0.964449  -0.388985  -0.960793  -1.990809
     3  C    6.487055   0.518973   0.201418   0.063106   0.201052   0.517258
     4  C   -4.711712  -0.499918  -0.112840  -0.081798  -0.112556  -0.498697
     5  C   11.626760   0.379416   0.132530   0.189415   0.131384   0.374030
     6  C  -17.625241  -1.330925  -0.525635  -0.344857  -0.527210  -1.326171
     7  C   27.660474   0.702341  -4.265968  -0.340660  -4.266864   0.695554
     8  C    0.702341  17.603896  -5.252346  -2.305136   6.655396  -3.507704
     9  C   -4.265968  -5.252346  27.334963  -1.275355 -11.656748   6.654646
    10  C   -0.340660  -2.305136  -1.275355  15.973035  -1.277071  -2.304413
    11  C   -4.266864   6.655396 -11.656748  -1.277071  27.337525  -5.255479
    12  C    0.695554  -3.507704   6.654646  -2.304413  -5.255479  17.601619
    13  H    0.109849   0.052465   0.013583   0.005966   0.013555   0.052424
    14  H   -0.002271   0.002082  -0.000032   0.000123  -0.000032   0.002089
    15  H    0.193280   0.046458   0.008416   0.008977   0.008434   0.046353
    16  H    0.109063   0.069107   0.084564   0.037786   0.052178  -0.032788
    17  H    0.109028  -0.032799   0.052178   0.037805   0.084572   0.069120
    18  Cl  -0.279974  -0.737149   0.679376  -0.288039  -0.882323   0.122892
    19  Cl  -0.032617  -0.024325  -0.001176   0.005597  -0.001185  -0.024296
    20  Cl  -0.003075  -0.072576   0.282662  -1.044566   0.282760  -0.072692
    21  Cl  -0.218804  -0.033578  -0.002147  -0.002046  -0.002134  -0.033512
    22  Cl  -0.280068   0.122857  -0.882027  -0.288012   0.679554  -0.737186
              13         14         15         16         17         18
     1  C    0.010616   0.022772   0.011625   0.038995   0.038997  -0.112099
     2  C    0.199298  -0.033611  -0.016296   0.002328   0.002324   0.229802
     3  C    0.001442   0.262632   0.034284  -0.000393  -0.000393   0.134159
     4  C   -0.072447   0.065395  -0.008404   0.000158   0.000158  -0.032748
     5  C    0.010553   0.054096   0.184945  -0.001082  -0.001082   0.325209
     6  C   -0.042078  -0.022148  -0.153995  -0.000037  -0.000033  -0.190852
     7  C    0.109849  -0.002271   0.193280   0.109063   0.109028  -0.279974
     8  C    0.052465   0.002082   0.046458   0.069107  -0.032799  -0.737149
     9  C    0.013583  -0.000032   0.008416   0.084564   0.052178   0.679376
    10  C    0.005966   0.000123   0.008977   0.037786   0.037805  -0.288039
    11  C    0.013555  -0.000032   0.008434   0.052178   0.084572  -0.882323
    12  C    0.052424   0.002089   0.046353  -0.032788   0.069120   0.122892
    13  H    0.532695  -0.007135  -0.000005  -0.000002  -0.000002  -0.005215
    14  H   -0.007135   0.509128   0.000050   0.000000   0.000000  -0.001005
    15  H   -0.000005   0.000050   0.516638  -0.000000  -0.000000  -0.005958
    16  H   -0.000002   0.000000  -0.000000   0.492807  -0.000219   0.000168
    17  H   -0.000002   0.000000  -0.000000  -0.000219   0.492808  -0.008407
    18  Cl  -0.005215  -0.001005  -0.005958   0.000168  -0.008407  17.715791
    19  Cl   0.000008  -0.000102  -0.013602  -0.000011  -0.000011  -0.000029
    20  Cl   0.000124  -0.000001   0.000095  -0.014385  -0.014385  -0.023266
    21  Cl  -0.001714  -0.008287  -0.002160  -0.000001  -0.000001   0.005707
    22  Cl  -0.005220  -0.001003  -0.005949  -0.008409   0.000167  -0.045671
              19         20         21         22
     1  C   -0.334447  -0.114119  -0.268987  -0.112457
     2  C    0.213939  -0.028872   0.409093   0.230867
     3  C    0.766972   0.005210  -0.887521   0.133532
     4  C   -0.063244  -0.003157  -1.154233  -0.032625
     5  C   -1.353087   0.015564   0.210313   0.325571
     6  C    0.047368  -0.023622   1.232789  -0.191685
     7  C   -0.032617  -0.003075  -0.218804  -0.280068
     8  C   -0.024325  -0.072576  -0.033578   0.122857
     9  C   -0.001176   0.282662  -0.002147  -0.882027
    10  C    0.005597  -1.044566  -0.002046  -0.288012
    11  C   -0.001185   0.282760  -0.002134   0.679554
    12  C   -0.024296  -0.072692  -0.033512  -0.737186
    13  H    0.000008   0.000124  -0.001714  -0.005220
    14  H   -0.000102  -0.000001  -0.008287  -0.001003
    15  H   -0.013602   0.000095  -0.002160  -0.005949
    16  H   -0.000011  -0.014385  -0.000001  -0.008409
    17  H   -0.000011  -0.014385  -0.000001   0.000167
    18  Cl  -0.000029  -0.023266   0.005707  -0.045671
    19  Cl  17.512137   0.000089  -0.206068  -0.000026
    20  Cl   0.000089  17.421587   0.000006  -0.023261
    21  Cl  -0.206068   0.000006  17.484972   0.005709
    22  Cl  -0.000026  -0.023261   0.005709  17.715723
 Mulliken charges:
               1
     1  C    0.449622
     2  C   -0.939888
     3  C   -1.282210
     4  C    0.437555
     5  C    0.362588
     6  C   -1.697597
     7  C    0.652360
     8  C   -0.339590
     9  C   -0.502691
    10  C    0.716941
    11  C   -0.502694
    12  C   -0.339911
    13  H    0.131241
    14  H    0.157260
    15  H    0.146816
    16  H    0.170174
    17  H    0.170173
    18  Cl   0.399633
    19  Cl   0.508118
    20  Cl   0.429879
    21  Cl   0.472602
    22  Cl   0.399619
 Sum of Mulliken charges =  -0.00000
 Mulliken charges with hydrogens summed into heavy atoms:
               1
     1  C    0.449622
     2  C   -0.808648
     3  C   -1.124950
     4  C    0.437555
     5  C    0.362588
     6  C   -1.550781
     7  C    0.652360
     8  C   -0.339590
     9  C   -0.332517
    10  C    0.716941
    11  C   -0.332520
    12  C   -0.339911
    18  Cl   0.399633
    19  Cl   0.508118
    20  Cl   0.429879
    21  Cl   0.472602
    22  Cl   0.399619
 Electronic spatial extent (au):  <R**2>=           7785.4038
 Charge=              0.0000 electrons
 Dipole moment (field-independent basis, Debye):
    X=             -1.8262    Y=             -0.0006    Z=             -1.0887  Tot=              2.1261
 Quadrupole moment (field-independent basis, Debye-Ang):
   XX=           -139.9092   YY=           -133.6194   ZZ=           -128.6234
   XY=             -0.0017   XZ=             -3.0647   YZ=              0.0032
 Traceless Quadrupole moment (field-independent basis, Debye-Ang):
   XX=             -5.8585   YY=              0.4312   ZZ=              5.4273
   XY=             -0.0017   XZ=             -3.0647   YZ=              0.0032
 Octapole moment (field-independent basis, Debye-Ang**2):
  XXX=            -15.0077  YYY=              0.0053  ZZZ=             -4.5639  XYY=             -9.1971
  XXY=             -0.0026  XXZ=             -5.0910  XZZ=             14.0479  YZZ=             -0.0067
  YYZ=              4.2934  XYZ=              0.0099
 Hexadecapole moment (field-independent basis, Debye-Ang**3):
 XXXX=          -8041.5224 YYYY=          -1472.5559 ZZZZ=           -799.6123 XXXY=             -0.0078
 XXXZ=             -9.5713 YYYX=              0.0065 YYYZ=             -0.0343 ZZZX=              0.5236
 ZZZY=              0.0437 XXYY=          -1537.6261 XXZZ=          -1459.7769 YYZZ=           -409.3598
 XXYZ=             -0.0005 YYXZ=              2.0549 ZZXY=             -0.0046
 N-N= 1.692052167117D+03 E-N=-9.920761141836D+03  KE= 2.754121118494D+03
 1\1\GINC-CN079\FOpt\RB3LYP\6-311+G(d,p)\C12H5Cl5\20CY91R06\03-Apr-2022
 \0\\# opt b3lyp/6-311+g(d,p) scf=xqc\\Title Card Required\\0,1\C,0.213
 5564907,1.211124167,0.0239891482\C,1.4957433178,1.2878412046,0.5729079
 871\C,2.1900665272,2.490857969,0.5699627753\C,1.615314196,3.6347587682
 ,0.0193691969\C,0.3327270646,3.5649262975,-0.5314779334\C,-0.360055041
 2,2.3563631856,-0.5264364307\C,-0.5397382416,-0.0773628679,0.022903593
 6\C,-0.4439364124,-0.9918753881,-1.0369362256\C,-1.1370395205,-2.19820
 00189,-1.0554689981\C,-1.9570450034,-2.5063335961,0.0222125918\C,-2.09
 25202316,-1.6412894113,1.1002215558\C,-1.3832879895,-0.4443685129,1.08
 23983344\H,1.9547421963,0.4064734447,1.0042979129\H,3.1837664998,2.553
 6677312,0.9945080628\H,-1.3524795848,2.3196261171,-0.9571634241\H,-1.0
 369443148,-2.8763280683,-1.8909507378\H,-2.7328443439,-1.8878678762,1.
 9351416444\Cl,-1.5727739243,0.6296322734,2.4557671603\Cl,-0.4360393284
 ,4.9668849878,-1.2348520515\Cl,-2.8400926031,-4.0194756895,0.021731933
 6\Cl,2.5226068334,5.1266597969,0.0362532242\Cl,0.5840442539,-0.6274928
 238,-2.4102677602\\Version=EM64L-G16RevB.01\State=1-A\HF=-2761.5196802
 \RMSD=2.242e-09\RMSF=3.429e-06\Dipole=0.0456501,-0.8035125,0.2279557\Q
 uadrupole=3.5282797,-4.5098497,0.98157,-1.5361284,1.8201945,0.5670592\
 PG=C01 [X(C12H5Cl5)]\\@


 BLESSED ARE THOSE WHO NOUGHT EXPECT,
 FOR THEY SHALL NOT BE DISAPPOINTED..  WALCOT - ODE TO PITT
 Job cpu time:       0 days 10 hours 36 minutes 22.0 seconds.
 Elapsed time:       0 days  0 hours 41 minutes 13.7 seconds.
 File lengths (MBytes):  RWF=    134 Int=      0 D2E=      0 Chk=     20 Scr=      1
 Normal termination of Gaussian 16 at Sun Apr  3 11:30:58 2022.
