 Entering Gaussian System, Link 0=g16
 Input=2,3prime,4-Trichlorobiphenyl.gjf
 Output=2,3prime,4-Trichlorobiphenyl.log
 Initial command:
 /usr/local/g16/l1.exe "/scratch/pkc/Gau-18624.inp" -scrdir="/scratch/pkc/"
 Entering Link 1 = /usr/local/g16/l1.exe PID=     18625.
  
 Copyright (c) 1988-2017, Gaussian, Inc.  All Rights Reserved.
  
 This is part of the Gaussian(R) 16 program.  It is based on
 the Gaussian(R) 09 system (copyright 2009, Gaussian, Inc.),
 the Gaussian(R) 03 system (copyright 2003, Gaussian, Inc.),
 the Gaussian(R) 98 system (copyright 1998, Gaussian, Inc.),
 the Gaussian(R) 94 system (copyright 1995, Gaussian, Inc.),
 the Gaussian 92(TM) system (copyright 1992, Gaussian, Inc.),
 the Gaussian 90(TM) system (copyright 1990, Gaussian, Inc.),
 the Gaussian 88(TM) system (copyright 1988, Gaussian, Inc.),
 the Gaussian 86(TM) system (copyright 1986, Carnegie Mellon
 University), and the Gaussian 82(TM) system (copyright 1983,
 Carnegie Mellon University). Gaussian is a federally registered
 trademark of Gaussian, Inc.
  
 This software contains proprietary and confidential information,
 including trade secrets, belonging to Gaussian, Inc.
  
 This software is provided under written license and may be
 used, copied, transmitted, or stored only in accord with that
 written license.
  
 The following legend is applicable only to US Government
 contracts under FAR:
  
                    RESTRICTED RIGHTS LEGEND
  
 Use, reproduction and disclosure by the US Government is
 subject to restrictions as set forth in subparagraphs (a)
 and (c) of the Commercial Computer Software - Restricted
 Rights clause in FAR 52.227-19.
  
 Gaussian, Inc.
 340 Quinnipiac St., Bldg. 40, Wallingford CT 06492
  
  
 ---------------------------------------------------------------
 Warning -- This program may not be used in any manner that
 competes with the business of Gaussian, Inc. or will provide
 assistance to any competitor of Gaussian, Inc.  The licensee
 of this program is prohibited from giving any competitor of
 Gaussian, Inc. access to this program.  By using this program,
 the user acknowledges that Gaussian, Inc. is engaged in the
 business of creating and licensing software in the field of
 computational chemistry and represents and warrants to the
 licensee that it is not a competitor of Gaussian, Inc. and that
 it will not use this program in any manner prohibited above.
 ---------------------------------------------------------------
  

 Cite this work as:
 Gaussian 16, Revision B.01,
 M. J. Frisch, G. W. Trucks, H. B. Schlegel, G. E. Scuseria, 
 M. A. Robb, J. R. Cheeseman, G. Scalmani, V. Barone, 
 G. A. Petersson, H. Nakatsuji, X. Li, M. Caricato, A. V. Marenich, 
 J. Bloino, B. G. Janesko, R. Gomperts, B. Mennucci, H. P. Hratchian, 
 J. V. Ortiz, A. F. Izmaylov, J. L. Sonnenberg, D. Williams-Young, 
 F. Ding, F. Lipparini, F. Egidi, J. Goings, B. Peng, A. Petrone, 
 T. Henderson, D. Ranasinghe, V. G. Zakrzewski, J. Gao, N. Rega, 
 G. Zheng, W. Liang, M. Hada, M. Ehara, K. Toyota, R. Fukuda, 
 J. Hasegawa, M. Ishida, T. Nakajima, Y. Honda, O. Kitao, H. Nakai, 
 T. Vreven, K. Throssell, J. A. Montgomery, Jr., J. E. Peralta, 
 F. Ogliaro, M. J. Bearpark, J. J. Heyd, E. N. Brothers, K. N. Kudin, 
 V. N. Staroverov, T. A. Keith, R. Kobayashi, J. Normand, 
 K. Raghavachari, A. P. Rendell, J. C. Burant, S. S. Iyengar, 
 J. Tomasi, M. Cossi, J. M. Millam, M. Klene, C. Adamo, R. Cammi, 
 J. W. Ochterski, R. L. Martin, K. Morokuma, O. Farkas, 
 J. B. Foresman, and D. J. Fox, Gaussian, Inc., Wallingford CT, 2016.
 
 ******************************************
 Gaussian 16:  EM64L-G16RevB.01 20-Dec-2017
                15-Mar-2022 
 ******************************************
 %mem=10GB
 %nprocshared=4
 Will use up to    4 processors via shared memory.
 --------------------------------
 # opt b3lyp/6-311+g(d,p) scf=xqc
 --------------------------------
 1/18=20,19=15,26=3,38=1/1,3;
 2/9=110,12=2,17=6,18=5,40=1/2;
 3/5=4,6=6,7=111,11=2,25=1,30=1,71=1,74=-5/1,2,3;
 4//1;
 5/5=2,8=3,13=1,38=5/2,8;
 6/7=2,8=2,9=2,10=2,28=1/1;
 7//1,2,3,16;
 1/18=20,19=15,26=3/3(2);
 2/9=110/2;
 99//99;
 2/9=110/2;
 3/5=4,6=6,7=111,11=2,25=1,30=1,71=1,74=-5/1,2,3;
 4/5=5,16=3,69=1/1;
 5/5=2,8=3,13=1,38=5/2,8;
 7//1,2,3,16;
 1/18=20,19=15,26=3/3(-5);
 2/9=110/2;
 6/7=2,8=2,9=2,10=2,19=2,28=1/1;
 99/9=1/99;
 -------------------
 Title Card Required
 -------------------
 Symbolic Z-matrix:
 Charge =  0 Multiplicity = 1
 C                    -1.81724  -1.6262   -0.40647 
 C                    -0.48486  -1.59631  -0.83982 
 C                     0.22304  -0.38686  -0.84589 
 C                    -0.40145   0.7927   -0.41862 
 C                    -1.73383   0.76282   0.01473 
 C                    -2.44173  -0.44663   0.0208 
 C                    -2.59514  -2.95527  -0.3998 
 C                    -1.97066  -4.13483  -0.82707 
 C                    -2.67855  -5.34428  -0.821 
 C                    -4.01093  -5.37417  -0.38765 
 C                    -4.63542  -4.1946    0.03962 
 C                    -3.92752  -2.98515   0.03355 
 H                     1.24034  -0.36404  -1.17676 
 H                    -2.21064   1.66344   0.34096 
 H                    -3.45903  -0.46945   0.35167 
 H                    -0.95335  -4.11201  -1.15794 
 H                    -4.55142  -6.29761  -0.38301 
 H                    -5.65272  -4.21742   0.3705 
 H                    -4.40433  -2.08453   0.35979 
 Cl                    0.29943  -3.07771  -1.37643 
 Cl                   -1.89426  -6.82568  -1.35761 
 Cl                    0.48758   2.31164  -0.42624 
 

 GradGradGradGradGradGradGradGradGradGradGradGradGradGradGradGradGradGrad
 Berny optimization.
 Initialization pass.
                           ----------------------------
                           !    Initial Parameters    !
                           ! (Angstroms and Degrees)  !
 --------------------------                            --------------------------
 ! Name  Definition              Value          Derivative Info.                !
 --------------------------------------------------------------------------------
 ! R1    R(1,2)                  1.4014         estimate D2E/DX2                !
 ! R2    R(1,6)                  1.4014         estimate D2E/DX2                !
 ! R3    R(1,7)                  1.54           estimate D2E/DX2                !
 ! R4    R(2,3)                  1.4014         estimate D2E/DX2                !
 ! R5    R(2,20)                 1.76           estimate D2E/DX2                !
 ! R6    R(3,4)                  1.4014         estimate D2E/DX2                !
 ! R7    R(3,13)                 1.07           estimate D2E/DX2                !
 ! R8    R(4,5)                  1.4014         estimate D2E/DX2                !
 ! R9    R(4,22)                 1.76           estimate D2E/DX2                !
 ! R10   R(5,6)                  1.4014         estimate D2E/DX2                !
 ! R11   R(5,14)                 1.07           estimate D2E/DX2                !
 ! R12   R(6,15)                 1.07           estimate D2E/DX2                !
 ! R13   R(7,8)                  1.4014         estimate D2E/DX2                !
 ! R14   R(7,12)                 1.4014         estimate D2E/DX2                !
 ! R15   R(8,9)                  1.4014         estimate D2E/DX2                !
 ! R16   R(8,16)                 1.07           estimate D2E/DX2                !
 ! R17   R(9,10)                 1.4014         estimate D2E/DX2                !
 ! R18   R(9,21)                 1.76           estimate D2E/DX2                !
 ! R19   R(10,11)                1.4014         estimate D2E/DX2                !
 ! R20   R(10,17)                1.07           estimate D2E/DX2                !
 ! R21   R(11,12)                1.4014         estimate D2E/DX2                !
 ! R22   R(11,18)                1.07           estimate D2E/DX2                !
 ! R23   R(12,19)                1.07           estimate D2E/DX2                !
 ! A1    A(2,1,6)              120.0            estimate D2E/DX2                !
 ! A2    A(2,1,7)              120.0            estimate D2E/DX2                !
 ! A3    A(6,1,7)              120.0            estimate D2E/DX2                !
 ! A4    A(1,2,3)              120.0            estimate D2E/DX2                !
 ! A5    A(1,2,20)             120.0            estimate D2E/DX2                !
 ! A6    A(3,2,20)             120.0            estimate D2E/DX2                !
 ! A7    A(2,3,4)              120.0            estimate D2E/DX2                !
 ! A8    A(2,3,13)             120.0            estimate D2E/DX2                !
 ! A9    A(4,3,13)             120.0            estimate D2E/DX2                !
 ! A10   A(3,4,5)              120.0            estimate D2E/DX2                !
 ! A11   A(3,4,22)             120.0            estimate D2E/DX2                !
 ! A12   A(5,4,22)             120.0            estimate D2E/DX2                !
 ! A13   A(4,5,6)              120.0            estimate D2E/DX2                !
 ! A14   A(4,5,14)             120.0            estimate D2E/DX2                !
 ! A15   A(6,5,14)             120.0            estimate D2E/DX2                !
 ! A16   A(1,6,5)              120.0            estimate D2E/DX2                !
 ! A17   A(1,6,15)             120.0            estimate D2E/DX2                !
 ! A18   A(5,6,15)             120.0            estimate D2E/DX2                !
 ! A19   A(1,7,8)              120.0            estimate D2E/DX2                !
 ! A20   A(1,7,12)             120.0            estimate D2E/DX2                !
 ! A21   A(8,7,12)             120.0            estimate D2E/DX2                !
 ! A22   A(7,8,9)              120.0            estimate D2E/DX2                !
 ! A23   A(7,8,16)             120.0            estimate D2E/DX2                !
 ! A24   A(9,8,16)             120.0            estimate D2E/DX2                !
 ! A25   A(8,9,10)             120.0            estimate D2E/DX2                !
 ! A26   A(8,9,21)             120.0            estimate D2E/DX2                !
 ! A27   A(10,9,21)            120.0            estimate D2E/DX2                !
 ! A28   A(9,10,11)            120.0            estimate D2E/DX2                !
 ! A29   A(9,10,17)            120.0            estimate D2E/DX2                !
 ! A30   A(11,10,17)           120.0            estimate D2E/DX2                !
 ! A31   A(10,11,12)           120.0            estimate D2E/DX2                !
 ! A32   A(10,11,18)           120.0            estimate D2E/DX2                !
 ! A33   A(12,11,18)           120.0            estimate D2E/DX2                !
 ! A34   A(7,12,11)            120.0            estimate D2E/DX2                !
 ! A35   A(7,12,19)            120.0            estimate D2E/DX2                !
 ! A36   A(11,12,19)           120.0            estimate D2E/DX2                !
 ! D1    D(6,1,2,3)              0.0001         estimate D2E/DX2                !
 ! D2    D(6,1,2,20)           180.0            estimate D2E/DX2                !
 ! D3    D(7,1,2,3)           -180.0            estimate D2E/DX2                !
 ! D4    D(7,1,2,20)            -0.0001         estimate D2E/DX2                !
 ! D5    D(2,1,6,5)             -0.0001         estimate D2E/DX2                !
 ! D6    D(2,1,6,15)           180.0            estimate D2E/DX2                !
 ! D7    D(7,1,6,5)            180.0            estimate D2E/DX2                !
 ! D8    D(7,1,6,15)             0.0            estimate D2E/DX2                !
 ! D9    D(2,1,7,8)             -0.0001         estimate D2E/DX2                !
 ! D10   D(2,1,7,12)           179.9998         estimate D2E/DX2                !
 ! D11   D(6,1,7,8)            179.9999         estimate D2E/DX2                !
 ! D12   D(6,1,7,12)            -0.0002         estimate D2E/DX2                !
 ! D13   D(1,2,3,4)              0.0            estimate D2E/DX2                !
 ! D14   D(1,2,3,13)           180.0            estimate D2E/DX2                !
 ! D15   D(20,2,3,4)          -179.9999         estimate D2E/DX2                !
 ! D16   D(20,2,3,13)            0.0001         estimate D2E/DX2                !
 ! D17   D(2,3,4,5)             -0.0001         estimate D2E/DX2                !
 ! D18   D(2,3,4,22)           180.0            estimate D2E/DX2                !
 ! D19   D(13,3,4,5)           179.9999         estimate D2E/DX2                !
 ! D20   D(13,3,4,22)            0.0            estimate D2E/DX2                !
 ! D21   D(3,4,5,6)              0.0001         estimate D2E/DX2                !
 ! D22   D(3,4,5,14)          -179.9999         estimate D2E/DX2                !
 ! D23   D(22,4,5,6)          -180.0            estimate D2E/DX2                !
 ! D24   D(22,4,5,14)            0.0            estimate D2E/DX2                !
 ! D25   D(4,5,6,1)              0.0            estimate D2E/DX2                !
 ! D26   D(4,5,6,15)           179.9999         estimate D2E/DX2                !
 ! D27   D(14,5,6,1)           180.0            estimate D2E/DX2                !
 ! D28   D(14,5,6,15)           -0.0001         estimate D2E/DX2                !
 ! D29   D(1,7,8,9)            179.9999         estimate D2E/DX2                !
 ! D30   D(1,7,8,16)             0.0001         estimate D2E/DX2                !
 ! D31   D(12,7,8,9)             0.0001         estimate D2E/DX2                !
 ! D32   D(12,7,8,16)         -179.9998         estimate D2E/DX2                !
 ! D33   D(1,7,12,11)         -179.9999         estimate D2E/DX2                !
 ! D34   D(1,7,12,19)            0.0            estimate D2E/DX2                !
 ! D35   D(8,7,12,11)           -0.0001         estimate D2E/DX2                !
 ! D36   D(8,7,12,19)          179.9999         estimate D2E/DX2                !
 ! D37   D(7,8,9,10)             0.0            estimate D2E/DX2                !
 ! D38   D(7,8,9,21)           180.0            estimate D2E/DX2                !
 ! D39   D(16,8,9,10)          179.9998         estimate D2E/DX2                !
 ! D40   D(16,8,9,21)           -0.0002         estimate D2E/DX2                !
 ! D41   D(8,9,10,11)            0.0            estimate D2E/DX2                !
 ! D42   D(8,9,10,17)         -179.9999         estimate D2E/DX2                !
 ! D43   D(21,9,10,11)         180.0            estimate D2E/DX2                !
 ! D44   D(21,9,10,17)           0.0001         estimate D2E/DX2                !
 ! D45   D(9,10,11,12)           0.0            estimate D2E/DX2                !
 ! D46   D(9,10,11,18)        -179.9998         estimate D2E/DX2                !
 ! D47   D(17,10,11,12)        179.9999         estimate D2E/DX2                !
 ! D48   D(17,10,11,18)          0.0001         estimate D2E/DX2                !
 ! D49   D(10,11,12,7)           0.0            estimate D2E/DX2                !
 ! D50   D(10,11,12,19)       -179.9999         estimate D2E/DX2                !
 ! D51   D(18,11,12,7)         179.9999         estimate D2E/DX2                !
 ! D52   D(18,11,12,19)         -0.0001         estimate D2E/DX2                !
 --------------------------------------------------------------------------------
 Trust Radius=3.00D-01 FncErr=1.00D-07 GrdErr=1.00D-06 EigMax=2.50D+02 EigMin=1.00D-04
 Number of steps in this run=    121 maximum allowed number of steps=    132.
 GradGradGradGradGradGradGradGradGradGradGradGradGradGradGradGradGradGrad

                          Input orientation:                          
 ---------------------------------------------------------------------
 Center     Atomic      Atomic             Coordinates (Angstroms)
 Number     Number       Type             X           Y           Z
 ---------------------------------------------------------------------
      1          6           0       -1.817239   -1.626199   -0.406474
      2          6           0       -0.484858   -1.596314   -0.839820
      3          6           0        0.223036   -0.386863   -0.845893
      4          6           0       -0.401452    0.792703   -0.418618
      5          6           0       -1.733834    0.762817    0.014727
      6          6           0       -2.441727   -0.446634    0.020799
      7          6           0       -2.595144   -2.955267   -0.399800
      8          6           0       -1.970657   -4.134832   -0.827075
      9          6           0       -2.678549   -5.344283   -0.821000
     10          6           0       -4.010930   -5.374169   -0.387651
     11          6           0       -4.635417   -4.194604    0.039625
     12          6           0       -3.927524   -2.985153    0.033550
     13          1           0        1.240338   -0.364044   -1.176762
     14          1           0       -2.210644    1.663442    0.340958
     15          1           0       -3.459030   -0.469452    0.351668
     16          1           0       -0.953354   -4.112013   -1.157944
     17          1           0       -4.551421   -6.297613   -0.383011
     18          1           0       -5.652718   -4.217424    0.370499
     19          1           0       -4.404333   -2.084529    0.359786
     20         17           0        0.299429   -3.077715   -1.376426
     21         17           0       -1.894264   -6.825683   -1.357610
     22         17           0        0.487583    2.311636   -0.426244
 ---------------------------------------------------------------------
                    Distance matrix (angstroms):
                    1          2          3          4          5
     1  C    0.000000
     2  C    1.401400   0.000000
     3  C    2.427296   1.401400   0.000000
     4  C    2.802800   2.427296   1.401400   0.000000
     5  C    2.427296   2.802800   2.427296   1.401400   0.000000
     6  C    1.401400   2.427296   2.802800   2.427296   1.401400
     7  C    1.540000   2.548270   3.838989   4.342800   3.838989
     8  C    2.548270   2.941400   4.342800   5.187469   4.975106
     9  C    3.838989   4.342800   5.744200   6.558176   6.235992
    10  C    4.342800   5.187469   6.558176   7.145600   6.558176
    11  C    3.838989   4.975106   6.235992   6.558176   5.744200
    12  C    2.548270   3.813607   4.975106   5.187469   4.342800
    13  H    3.396345   2.146700   1.070000   2.146700   3.396345
    14  H    3.396345   3.872800   3.396345   2.146700   1.070000
    15  H    2.146700   3.396345   3.872800   3.396345   2.146700
    16  H    2.736837   2.578650   3.918930   4.990735   5.074276
    17  H    5.412800   6.232802   7.612271   8.215600   7.612271
    18  H    4.693509   5.919617   7.118798   7.300676   6.347206
    19  H    2.736837   4.127917   5.074276   4.990735   3.918930
    20  Cl   2.743718   1.760000   2.743718   4.048303   4.562800
    21  Cl   5.286324   5.440665   6.797295   7.819846   7.713260
    22  Cl   4.562800   4.048303   2.743718   1.760000   2.743718
                    6          7          8          9         10
     6  C    0.000000
     7  C    2.548270   0.000000
     8  C    3.813607   1.401400   0.000000
     9  C    4.975106   2.427296   1.401400   0.000000
    10  C    5.187469   2.802800   2.427296   1.401400   0.000000
    11  C    4.342800   2.427296   2.802800   2.427296   1.401400
    12  C    2.941400   1.401400   2.427296   2.802800   2.427296
    13  H    3.872800   4.693509   4.965039   6.347206   7.300676
    14  H    2.146700   4.693509   5.919617   7.118798   7.300676
    15  H    1.070000   2.736837   4.127917   5.074276   4.990735
    16  H    4.127917   2.146700   1.070000   2.146700   3.396345
    17  H    6.232802   3.872800   3.396345   2.146700   1.070000
    18  H    4.965039   3.396345   3.872800   3.396345   2.146700
    19  H    2.578650   2.146700   3.396345   3.872800   3.396345
    20  Cl   4.048303   3.057342   2.563702   3.783409   4.983028
    21  Cl   6.549198   4.048303   2.743718   1.760000   2.743718
    22  Cl   4.048303   6.102800   6.910901   8.294174   8.905600
                   11         12         13         14         15
    11  C    0.000000
    12  C    1.401400   0.000000
    13  H    7.118798   5.919617   0.000000
    14  H    6.347206   4.965039   4.280590   0.000000
    15  H    3.918930   2.578650   4.942800   2.471400   0.000000
    16  H    3.872800   3.396345   4.342800   6.097816   4.671787
    17  H    2.146700   3.396345   8.329571   8.329571   5.974992
    18  H    1.070000   2.146700   8.047159   6.814200   4.342800
    19  H    2.146700   1.070000   6.097816   4.342800   1.871400
    20  Cl   5.254079   4.456874   2.879094   5.632800   4.890332
    21  Cl   4.048303   4.562800   7.184095   8.663168   6.765486
    22  Cl   8.294174   6.910901   2.879094   2.879094   4.890332
                   16         17         18         19         20
    16  H    0.000000
    17  H    4.280590   0.000000
    18  H    4.942800   2.471400   0.000000
    19  H    4.280590   4.280590   2.471400   0.000000
    20  Cl   1.639199   5.906383   6.307038   5.111382   0.000000
    21  Cl   2.879094   2.879094   4.890332   5.632800   4.342800
    22  Cl   6.623817   9.975600   8.998151   6.623817   5.475705
                   21         22
    21  Cl   0.000000
    22  Cl   9.488480   0.000000
 Stoichiometry    C12H7Cl3
 Framework group  C1[X(C12H7Cl3)]
 Deg. of freedom    60
 Full point group                 C1      NOp   1
 Largest Abelian subgroup         C1      NOp   1
 Largest concise Abelian subgroup C1      NOp   1
                         Standard orientation:                         
 ---------------------------------------------------------------------
 Center     Atomic      Atomic             Coordinates (Angstroms)
 Number     Number       Type             X           Y           Z
 ---------------------------------------------------------------------
      1          6           0        0.615165    0.583945   -0.000002
      2          6           0        1.091254   -0.734107   -0.000001
      3          6           0        2.470765   -0.980827   -0.000000
      4          6           0        3.374187    0.090504    0.000000
      5          6           0        2.898098    1.408556   -0.000003
      6          6           0        1.518586    1.655277   -0.000003
      7          6           0       -0.900782    0.855067   -0.000002
      8          6           0       -1.804204   -0.216264   -0.000002
      9          6           0       -3.183715    0.030456   -0.000000
     10          6           0       -3.659804    1.348508    0.000002
     11          6           0       -2.756382    2.419840    0.000003
     12          6           0       -1.376871    2.173119    0.000002
     13          1           0        2.834269   -1.987189    0.000001
     14          1           0        3.587880    2.226541   -0.000005
     15          1           0        1.155082    2.661639   -0.000004
     16          1           0       -1.440699   -1.222626   -0.000001
     17          1           0       -4.713091    1.536885    0.000005
     18          1           0       -3.119887    3.426202    0.000008
     19          1           0       -0.687088    2.991104    0.000004
     20         17           0       -0.043342   -2.079578    0.000002
     21         17           0       -4.318311   -1.315015   -0.000001
     22         17           0        5.106697   -0.219349    0.000001
 ---------------------------------------------------------------------
 Rotational constants (GHZ):           1.0305391           0.2085209           0.1734290
 Standard basis: 6-311+G(d,p) (5D, 7F)
 There are   411 symmetry adapted cartesian basis functions of A   symmetry.
 There are   396 symmetry adapted basis functions of A   symmetry.
   396 basis functions,   647 primitive gaussians,   411 cartesian basis functions
    65 alpha electrons       65 beta electrons
       nuclear repulsion energy      1185.1906677716 Hartrees.
 NAtoms=   22 NActive=   22 NUniq=   22 SFac= 1.00D+00 NAtFMM=   60 NAOKFM=F Big=F
 Integral buffers will be    131072 words long.
 Raffenetti 2 integral format.
 Two-electron integral symmetry is turned on.
 One-electron integrals computed using PRISM.
 NBasis=   396 RedAO= T EigKep=  1.36D-06  NBF=   396
 NBsUse=   391 1.00D-06 EigRej=  9.78D-07 NBFU=   391
 ExpMin= 4.38D-02 ExpMax= 1.06D+05 ExpMxC= 3.62D+03 IAcc=3 IRadAn=         5 AccDes= 0.00D+00
 Harris functional with IExCor=  402 and IRadAn=       5 diagonalized for initial guess.
 HarFok:  IExCor=  402 AccDes= 0.00D+00 IRadAn=         5 IDoV= 1 UseB2=F ITyADJ=14
 ICtDFT=  3500011 ScaDFX=  1.000000  1.000000  1.000000  1.000000
 FoFCou: FMM=F IPFlag=           0 FMFlag=      100000 FMFlg1=           0
         NFxFlg=           0 DoJE=T BraDBF=F KetDBF=T FulRan=T
         wScrn=  0.000000 ICntrl=       500 IOpCl=  0 I1Cent=   200000004 NGrid=           0
         NMat0=    1 NMatS0=      1 NMatT0=    0 NMatD0=    1 NMtDS0=    0 NMtDT0=    0
 Petite list used in FoFCou.
 Requested convergence on RMS density matrix=1.00D-08 within  32 cycles.
 Requested convergence on MAX density matrix=1.00D-06.
 Requested convergence on             energy=1.00D-06.
 No special actions if energy rises.
 EnCoef did     4 forward-backward iterations
 SCF Done:  E(RB3LYP) =  -1842.22369864     A.U. after   16 cycles
            NFock= 16  Conv=0.63D-08     -V/T= 2.0028
 QCSCF skips out because SCF is already converged.

 **********************************************************************

            Population analysis using the SCF Density.

 **********************************************************************

 Orbital symmetries:
       Occupied  (A) (A) (A) (A) (A) (A) (A) (A) (A) (A) (A) (A)
                 (A) (A) (A) (A) (A) (A) (A) (A) (A) (A) (A) (A)
                 (A) (A) (A) (A) (A) (A) (A) (A) (A) (A) (A) (A)
                 (A) (A) (A) (A) (A) (A) (A) (A) (A) (A) (A) (A)
                 (A) (A) (A) (A) (A) (A) (A) (A) (A) (A) (A) (A)
                 (A) (A) (A) (A) (A)
       Virtual   (A) (A) (A) (A) (A) (A) (A) (A) (A) (A) (A) (A)
                 (A) (A) (A) (A) (A) (A) (A) (A) (A) (A) (A) (A)
                 (A) (A) (A) (A) (A) (A) (A) (A) (A) (A) (A) (A)
                 (A) (A) (A) (A) (A) (A) (A) (A) (A) (A) (A) (A)
                 (A) (A) (A) (A) (A) (A) (A) (A) (A) (A) (A) (A)
                 (A) (A) (A) (A) (A) (A) (A) (A) (A) (A) (A) (A)
                 (A) (A) (A) (A) (A) (A) (A) (A) (A) (A) (A) (A)
                 (A) (A) (A) (A) (A) (A) (A) (A) (A) (A) (A) (A)
                 (A) (A) (A) (A) (A) (A) (A) (A) (A) (A) (A) (A)
                 (A) (A) (A) (A) (A) (A) (A) (A) (A) (A) (A) (A)
                 (A) (A) (A) (A) (A) (A) (A) (A) (A) (A) (A) (A)
                 (A) (A) (A) (A) (A) (A) (A) (A) (A) (A) (A) (A)
                 (A) (A) (A) (A) (A) (A) (A) (A) (A) (A) (A) (A)
                 (A) (A) (A) (A) (A) (A) (A) (A) (A) (A) (A) (A)
                 (A) (A) (A) (A) (A) (A) (A) (A) (A) (A) (A) (A)
                 (A) (A) (A) (A) (A) (A) (A) (A) (A) (A) (A) (A)
                 (A) (A) (A) (A) (A) (A) (A) (A) (A) (A) (A) (A)
                 (A) (A) (A) (A) (A) (A) (A) (A) (A) (A) (A) (A)
                 (A) (A) (A) (A) (A) (A) (A) (A) (A) (A) (A) (A)
                 (A) (A) (A) (A) (A) (A) (A) (A) (A) (A) (A) (A)
                 (A) (A) (A) (A) (A) (A) (A) (A) (A) (A) (A) (A)
                 (A) (A) (A) (A) (A) (A) (A) (A) (A) (A) (A) (A)
                 (A) (A) (A) (A) (A) (A) (A) (A) (A) (A) (A) (A)
                 (A) (A) (A) (A) (A) (A) (A) (A) (A) (A) (A) (A)
                 (A) (A) (A) (A) (A) (A) (A) (A) (A) (A) (A) (A)
                 (A) (A) (A) (A) (A) (A) (A) (A) (A) (A) (A) (A)
                 (A) (A) (A) (A) (A) (A) (A) (A) (A) (A) (A) (A)
                 (A) (A)
 The electronic state is 1-A.
 Alpha  occ. eigenvalues -- -101.57546-101.57153-101.55761 -10.26810 -10.26415
 Alpha  occ. eigenvalues --  -10.24467 -10.22575 -10.21669 -10.21259 -10.21149
 Alpha  occ. eigenvalues --  -10.21080 -10.19572 -10.19441 -10.19319 -10.17420
 Alpha  occ. eigenvalues --   -9.49329  -9.48579  -9.47208  -7.25733  -7.25056
 Alpha  occ. eigenvalues --   -7.24779  -7.24764  -7.24056  -7.24024  -7.23663
 Alpha  occ. eigenvalues --   -7.22695  -7.22662  -0.93402  -0.90210  -0.89261
 Alpha  occ. eigenvalues --   -0.85811  -0.84273  -0.79048  -0.77195  -0.75294
 Alpha  occ. eigenvalues --   -0.73631  -0.65495  -0.63753  -0.62648  -0.60018
 Alpha  occ. eigenvalues --   -0.54866  -0.53082  -0.51537  -0.49748  -0.48518
 Alpha  occ. eigenvalues --   -0.47077  -0.46104  -0.45121  -0.44805  -0.43745
 Alpha  occ. eigenvalues --   -0.40834  -0.40374  -0.40166  -0.38967  -0.38415
 Alpha  occ. eigenvalues --   -0.37354  -0.35580  -0.33730  -0.33432  -0.32098
 Alpha  occ. eigenvalues --   -0.29533  -0.28636  -0.28066  -0.26019  -0.24601
 Alpha virt. eigenvalues --   -0.06721  -0.05331  -0.02937  -0.02344  -0.00607
 Alpha virt. eigenvalues --   -0.00600   0.00520   0.00786   0.01408   0.01569
 Alpha virt. eigenvalues --    0.02980   0.03602   0.04306   0.04401   0.05506
 Alpha virt. eigenvalues --    0.05512   0.05862   0.06841   0.06871   0.08168
 Alpha virt. eigenvalues --    0.08169   0.08446   0.08779   0.09301   0.10166
 Alpha virt. eigenvalues --    0.10229   0.10877   0.11373   0.11533   0.11790
 Alpha virt. eigenvalues --    0.12583   0.12959   0.13277   0.13630   0.14207
 Alpha virt. eigenvalues --    0.14462   0.14595   0.14952   0.16008   0.16288
 Alpha virt. eigenvalues --    0.17171   0.17528   0.17589   0.17695   0.18228
 Alpha virt. eigenvalues --    0.18321   0.19069   0.19596   0.19825   0.20106
 Alpha virt. eigenvalues --    0.20386   0.21052   0.21237   0.21424   0.21807
 Alpha virt. eigenvalues --    0.21952   0.22486   0.23255   0.23479   0.23583
 Alpha virt. eigenvalues --    0.24906   0.25551   0.25840   0.26250   0.26931
 Alpha virt. eigenvalues --    0.27438   0.28128   0.28208   0.28673   0.29976
 Alpha virt. eigenvalues --    0.30334   0.31149   0.31882   0.33108   0.33554
 Alpha virt. eigenvalues --    0.33789   0.35375   0.36782   0.37401   0.38656
 Alpha virt. eigenvalues --    0.40268   0.41131   0.43661   0.43850   0.44437
 Alpha virt. eigenvalues --    0.44865   0.45561   0.46327   0.47126   0.48502
 Alpha virt. eigenvalues --    0.49838   0.50715   0.50883   0.51513   0.52579
 Alpha virt. eigenvalues --    0.52951   0.53945   0.54069   0.55288   0.55839
 Alpha virt. eigenvalues --    0.56533   0.57226   0.57310   0.58552   0.59280
 Alpha virt. eigenvalues --    0.59530   0.61241   0.61274   0.61537   0.62833
 Alpha virt. eigenvalues --    0.63571   0.65413   0.65491   0.66255   0.67388
 Alpha virt. eigenvalues --    0.67476   0.68396   0.68867   0.68882   0.70016
 Alpha virt. eigenvalues --    0.72914   0.74841   0.76148   0.79066   0.80108
 Alpha virt. eigenvalues --    0.80478   0.82038   0.82308   0.83046   0.83291
 Alpha virt. eigenvalues --    0.83849   0.84411   0.84723   0.84986   0.86092
 Alpha virt. eigenvalues --    0.86384   0.86710   0.87200   0.88293   0.88479
 Alpha virt. eigenvalues --    0.89450   0.89906   0.90464   0.91360   0.92604
 Alpha virt. eigenvalues --    0.94199   0.94606   0.94956   0.95848   0.96000
 Alpha virt. eigenvalues --    0.97854   0.98283   0.99049   1.00159   1.00192
 Alpha virt. eigenvalues --    1.01558   1.03230   1.06223   1.06628   1.07495
 Alpha virt. eigenvalues --    1.08107   1.09354   1.10296   1.12022   1.12831
 Alpha virt. eigenvalues --    1.13893   1.17737   1.21139   1.22764   1.23343
 Alpha virt. eigenvalues --    1.25649   1.27992   1.28548   1.29716   1.31186
 Alpha virt. eigenvalues --    1.33395   1.36006   1.37299   1.44623   1.45874
 Alpha virt. eigenvalues --    1.46916   1.50176   1.50630   1.52875   1.53780
 Alpha virt. eigenvalues --    1.54787   1.55239   1.57455   1.59268   1.59714
 Alpha virt. eigenvalues --    1.60260   1.61694   1.63867   1.65707   1.67428
 Alpha virt. eigenvalues --    1.68941   1.69783   1.72870   1.75159   1.75548
 Alpha virt. eigenvalues --    1.77221   1.83373   1.83740   1.84289   1.86618
 Alpha virt. eigenvalues --    1.86874   1.87896   1.90279   1.91437   1.93806
 Alpha virt. eigenvalues --    1.94302   1.94958   1.95837   1.97978   1.98553
 Alpha virt. eigenvalues --    1.99796   1.99833   2.00645   2.04222   2.04543
 Alpha virt. eigenvalues --    2.07147   2.07901   2.11205   2.15508   2.17753
 Alpha virt. eigenvalues --    2.22814   2.24933   2.25961   2.26439   2.27248
 Alpha virt. eigenvalues --    2.28169   2.30812   2.34174   2.35673   2.35875
 Alpha virt. eigenvalues --    2.38007   2.39200   2.41632   2.43231   2.48158
 Alpha virt. eigenvalues --    2.50364   2.52137   2.53989   2.54824   2.56384
 Alpha virt. eigenvalues --    2.61354   2.61630   2.62262   2.63541   2.64354
 Alpha virt. eigenvalues --    2.68169   2.69331   2.70275   2.72716   2.73398
 Alpha virt. eigenvalues --    2.73801   2.74455   2.75517   2.77030   2.77769
 Alpha virt. eigenvalues --    2.79148   2.80984   2.81636   2.82052   2.84053
 Alpha virt. eigenvalues --    2.85775   2.86745   2.91611   2.93539   2.96604
 Alpha virt. eigenvalues --    3.05316   3.06750   3.07048   3.11225   3.14485
 Alpha virt. eigenvalues --    3.18097   3.20296   3.22752   3.23995   3.33051
 Alpha virt. eigenvalues --    3.34769   3.38345   3.41217   3.50867   3.52673
 Alpha virt. eigenvalues --    3.56549   3.61578   3.67243   3.77636   3.79177
 Alpha virt. eigenvalues --    3.86460   4.03346   4.06566   4.11433   4.16859
 Alpha virt. eigenvalues --    4.20512   4.46972   4.79688   4.83820   9.76422
 Alpha virt. eigenvalues --    9.78203   9.87767  23.44393  23.60804  23.82611
 Alpha virt. eigenvalues --   23.88414  23.89881  23.94443  23.99259  24.02791
 Alpha virt. eigenvalues --   24.03905  24.06892  24.10769  24.14994  25.81443
 Alpha virt. eigenvalues --   25.81558  25.85227  26.10971  26.14372  26.57230
 Alpha virt. eigenvalues --   26.61343  26.67809  26.78989 215.75503 215.77408
 Alpha virt. eigenvalues --  215.90173
          Condensed to atoms (all electrons):
               1          2          3          4          5          6
     1  C   11.784413   1.309429  -3.727791  -2.825910   1.145961  -2.104152
     2  C    1.309429  17.387983   0.113603  -5.002055  -1.629462  -3.580870
     3  C   -3.727791   0.113603  15.276759   1.932306  -4.266027  -1.387067
     4  C   -2.825910  -5.002055   1.932306  15.062064  -1.312704   0.469656
     5  C    1.145961  -1.629462  -4.266027  -1.312704  15.978223  -1.896393
     6  C   -2.104152  -3.580870  -1.387067   0.469656  -1.896393  16.995301
     7  C    4.761955  -0.842157  -3.112794  -1.285343  -0.601140  -1.601401
     8  C   -0.546622   2.124636   1.350982  -0.344733   0.190276  -4.135407
     9  C   -1.737774   1.085702   1.379183   0.095678  -0.296850  -1.652114
    10  C   -0.427105   0.201410   0.226486   0.078440  -0.188971   0.712436
    11  C   -0.180286  -0.101358  -0.158091  -0.301420   0.194589  -1.557196
    12  C   -1.590291  -3.728120  -1.549390   0.157781  -0.982965   5.170425
    13  H    0.076567  -0.050249   0.308412  -0.001003   0.046974  -0.021101
    14  H    0.016580   0.007781   0.020608   0.066655   0.256258  -0.028102
    15  H    0.054836  -0.032259  -0.033940  -0.029736  -0.106106   0.337500
    16  H   -0.071992   0.117806   0.175801   0.044035  -0.017099   0.014057
    17  H    0.008576  -0.001391  -0.000208  -0.000005   0.000433   0.003033
    18  H   -0.002483   0.000428   0.000089   0.000220  -0.000861   0.008150
    19  H    0.051732   0.028033   0.004272  -0.000306   0.012433  -0.005162
    20  Cl   0.424459  -1.008373  -0.609797  -0.375435   0.033992   0.586969
    21  Cl  -0.191084   0.016089   0.005216  -0.004264  -0.002724  -0.117108
    22  Cl  -0.213445  -0.060293   0.356371  -1.023472   0.119702   0.103457
               7          8          9         10         11         12
     1  C    4.761955  -0.546622  -1.737774  -0.427105  -0.180286  -1.590291
     2  C   -0.842157   2.124636   1.085702   0.201410  -0.101358  -3.728120
     3  C   -3.112794   1.350982   1.379183   0.226486  -0.158091  -1.549390
     4  C   -1.285343  -0.344733   0.095678   0.078440  -0.301420   0.157781
     5  C   -0.601140   0.190276  -0.296850  -0.188971   0.194589  -0.982965
     6  C   -1.601401  -4.135407  -1.652114   0.712436  -1.557196   5.170425
     7  C   14.582277   0.818389  -2.334601  -2.245015  -0.320711  -2.122464
     8  C    0.818389  14.206508   2.695977  -4.815669   0.539549  -4.662649
     9  C   -2.334601   2.695977  16.460621  -5.084425  -0.471992  -3.693845
    10  C   -2.245015  -4.815669  -5.084425  14.877233   0.811573   2.025948
    11  C   -0.320711   0.539549  -0.471992   0.811573   9.594461  -2.183109
    12  C   -2.122464  -4.662649  -3.693845   2.025948  -2.183109  18.771182
    13  H    0.009998   0.003616  -0.000869  -0.000214   0.000560   0.000800
    14  H    0.002317  -0.001976  -0.000363   0.000333  -0.000280   0.016059
    15  H    0.042556   0.013148   0.002197  -0.001221   0.030268   0.046529
    16  H   -0.310348   0.302373   0.128834   0.151372  -0.048171  -0.036518
    17  H    0.045465   0.050981   0.019130   0.308275  -0.066579  -0.015913
    18  H    0.019885  -0.016644  -0.034225   0.017827   0.354902   0.002275
    19  H    0.062739   0.012967  -0.004073  -0.013641  -0.110017   0.281135
    20  Cl   1.004907  -1.287009  -0.815522   0.030864   0.051675   0.487551
    21  Cl  -0.405900   0.713023  -0.661030  -0.303263   0.239067  -0.036640
    22  Cl  -0.047834  -0.029278   0.000413   0.000014  -0.004841  -0.016069
              13         14         15         16         17         18
     1  C    0.076567   0.016580   0.054836  -0.071992   0.008576  -0.002483
     2  C   -0.050249   0.007781  -0.032259   0.117806  -0.001391   0.000428
     3  C    0.308412   0.020608  -0.033940   0.175801  -0.000208   0.000089
     4  C   -0.001003   0.066655  -0.029736   0.044035  -0.000005   0.000220
     5  C    0.046974   0.256258  -0.106106  -0.017099   0.000433  -0.000861
     6  C   -0.021101  -0.028102   0.337500   0.014057   0.003033   0.008150
     7  C    0.009998   0.002317   0.042556  -0.310348   0.045465   0.019885
     8  C    0.003616  -0.001976   0.013148   0.302373   0.050981  -0.016644
     9  C   -0.000869  -0.000363   0.002197   0.128834   0.019130  -0.034225
    10  C   -0.000214   0.000333  -0.001221   0.151372   0.308275   0.017827
    11  C    0.000560  -0.000280   0.030268  -0.048171  -0.066579   0.354902
    12  C    0.000800   0.016059   0.046529  -0.036518  -0.015913   0.002275
    13  H    0.493483  -0.000301   0.000071   0.000040  -0.000000   0.000000
    14  H   -0.000301   0.512652  -0.007616  -0.000001  -0.000000   0.000000
    15  H    0.000071  -0.007616   0.547799  -0.000099  -0.000002  -0.000013
    16  H    0.000040  -0.000001  -0.000099   0.685674  -0.000598   0.000125
    17  H   -0.000000  -0.000000  -0.000002  -0.000598   0.519237  -0.007630
    18  H    0.000000   0.000000  -0.000013   0.000125  -0.007630   0.533346
    19  H    0.000001   0.000044   0.001615  -0.000102  -0.000232  -0.007083
    20  Cl  -0.019435   0.000837   0.000088  -0.246781   0.000585  -0.000126
    21  Cl   0.000005  -0.000001   0.000087  -0.035092  -0.005906  -0.000215
    22  Cl  -0.010952  -0.012379  -0.000067   0.000283   0.000000  -0.000000
              19         20         21         22
     1  C    0.051732   0.424459  -0.191084  -0.213445
     2  C    0.028033  -1.008373   0.016089  -0.060293
     3  C    0.004272  -0.609797   0.005216   0.356371
     4  C   -0.000306  -0.375435  -0.004264  -1.023472
     5  C    0.012433   0.033992  -0.002724   0.119702
     6  C   -0.005162   0.586969  -0.117108   0.103457
     7  C    0.062739   1.004907  -0.405900  -0.047834
     8  C    0.012967  -1.287009   0.713023  -0.029278
     9  C   -0.004073  -0.815522  -0.661030   0.000413
    10  C   -0.013641   0.030864  -0.303263   0.000014
    11  C   -0.110017   0.051675   0.239067  -0.004841
    12  C    0.281135   0.487551  -0.036640  -0.016069
    13  H    0.000001  -0.019435   0.000005  -0.010952
    14  H    0.000044   0.000837  -0.000001  -0.012379
    15  H    0.001615   0.000088   0.000087  -0.000067
    16  H   -0.000102  -0.246781  -0.035092   0.000283
    17  H   -0.000232   0.000585  -0.005906   0.000000
    18  H   -0.007083  -0.000126  -0.000215  -0.000000
    19  H    0.570188  -0.000645   0.000171   0.000008
    20  Cl  -0.000645  18.145589  -0.056835  -0.011958
    21  Cl   0.000171  -0.056835  17.458617  -0.000052
    22  Cl   0.000008  -0.011958  -0.000052  17.418558
 Mulliken charges:
               1
     1  C   -0.015574
     2  C   -0.356312
     3  C   -0.304982
     4  C    0.599548
     5  C   -0.677539
     6  C   -0.314910
     7  C   -0.120780
     8  C   -1.182439
     9  C    0.919947
    10  C   -0.362689
    11  C   -0.312595
    12  C   -0.341711
    13  H    0.163598
    14  H    0.150895
    15  H    0.134367
    16  H    0.146401
    17  H    0.142751
    18  H    0.132033
    19  H    0.115923
    20  Cl   0.664397
    21  Cl   0.387838
    22  Cl   0.431833
 Sum of Mulliken charges =  -0.00000
 Mulliken charges with hydrogens summed into heavy atoms:
               1
     1  C   -0.015574
     2  C   -0.356312
     3  C   -0.141384
     4  C    0.599548
     5  C   -0.526643
     6  C   -0.180543
     7  C   -0.120780
     8  C   -1.036038
     9  C    0.919947
    10  C   -0.219938
    11  C   -0.180562
    12  C   -0.225788
    20  Cl   0.664397
    21  Cl   0.387838
    22  Cl   0.431833
 Electronic spatial extent (au):  <R**2>=           5529.8162
 Charge=             -0.0000 electrons
 Dipole moment (field-independent basis, Debye):
    X=              0.7110    Y=              2.4056    Z=              0.0000  Tot=              2.5085
 Quadrupole moment (field-independent basis, Debye-Ang):
   XX=           -113.7130   YY=            -97.8835   ZZ=           -112.6416
   XY=             -3.2356   XZ=             -0.0000   YZ=              0.0000
 Traceless Quadrupole moment (field-independent basis, Debye-Ang):
   XX=             -5.6337   YY=             10.1959   ZZ=             -4.5622
   XY=             -3.2356   XZ=             -0.0000   YZ=              0.0000
 Octapole moment (field-independent basis, Debye-Ang**2):
  XXX=            -12.3314  YYY=              7.1454  ZZZ=              0.0000  XYY=              0.9813
  XXY=             20.2578  XXZ=              0.0001  XZZ=              3.2547  YZZ=            -11.3340
  YYZ=              0.0001  XYZ=             -0.0001
 Hexadecapole moment (field-independent basis, Debye-Ang**3):
 XXXX=          -6012.4308 YYYY=          -1267.3893 ZZZZ=           -132.5681 XXXY=            -62.6730
 XXXZ=             -0.0005 YYYX=             14.9134 YYYZ=              0.0002 ZZZX=              0.0001
 ZZZY=             -0.0000 XXYY=          -1128.0241 XXZZ=          -1055.2948 YYZZ=           -269.7427
 XXYZ=              0.0002 YYXZ=             -0.0003 ZZXY=             14.0400
 N-N= 1.185190667772D+03 E-N=-6.722267212753D+03  KE= 1.837132803104D+03
 Calling FoFJK, ICntrl=      2127 FMM=F ISym2X=0 I1Cent= 0 IOpClX= 0 NMat=1 NMatS=1 NMatT=0.
 ***** Axes restored to original set *****
 -------------------------------------------------------------------
 Center     Atomic                   Forces (Hartrees/Bohr)
 Number     Number              X              Y              Z
 -------------------------------------------------------------------
      1        6          -0.019545805   -0.039946039   -0.001062880
      2        6          -0.007121542    0.018058509    0.005737893
      3        6          -0.004503895   -0.000665896    0.001358891
      4        6          -0.006633565   -0.012385256   -0.000140858
      5        6           0.002071275   -0.010562410   -0.002666047
      6        6           0.027402098    0.010595499   -0.007037771
      7        6           0.010876989    0.023217920    0.000777206
      8        6          -0.040668466   -0.033713488    0.007066737
      9        6          -0.014107369    0.018085693    0.008044357
     10        6           0.006271798    0.003944622   -0.001325394
     11        6           0.020483589    0.005271385   -0.005758308
     12        6           0.000312434   -0.017996414   -0.003482909
     13        1           0.008289578   -0.000038614   -0.002738283
     14        1          -0.003464626    0.007915468    0.002628078
     15        1          -0.005491374    0.002578360    0.002293342
     16        1          -0.040222552   -0.027295340    0.008124965
     17        1          -0.004811448   -0.008360535    0.000014935
     18        1          -0.008918239   -0.001003325    0.002749669
     19        1          -0.006293696    0.003959819    0.002817192
     20       17           0.088576192    0.060931305   -0.017738272
     21       17          -0.000639114    0.001943691    0.000575626
     22       17          -0.001862265   -0.004534952   -0.000238169
 -------------------------------------------------------------------
 Cartesian Forces:  Max     0.088576192 RMS     0.018821941

 GradGradGradGradGradGradGradGradGradGradGradGradGradGradGradGradGradGrad
 Berny optimization.
 FormGI is forming the generalized inverse of G from B-inverse, IUseBI=4.
 Internal  Forces:  Max     0.278604612 RMS     0.050680416
 Search for a local minimum.
 Step number   1 out of a maximum of  121
 All quantities printed in internal units (Hartrees-Bohrs-Radians)
 Mixed Optimization -- RFO/linear search
 Second derivative matrix not updated -- first step.
 ITU=  0
     Eigenvalues ---    0.00237   0.01506   0.01506   0.02070   0.02070
     Eigenvalues ---    0.02070   0.02070   0.02070   0.02070   0.02070
     Eigenvalues ---    0.02070   0.02070   0.02070   0.02070   0.02070
     Eigenvalues ---    0.02070   0.02070   0.02070   0.02070   0.16000
     Eigenvalues ---    0.16000   0.16000   0.16000   0.16000   0.16000
     Eigenvalues ---    0.16000   0.22000   0.22375   0.23478   0.23491
     Eigenvalues ---    0.23493   0.24610   0.25000   0.25000   0.25000
     Eigenvalues ---    0.25000   0.25000   0.28519   0.29539   0.29539
     Eigenvalues ---    0.29539   0.37230   0.37230   0.37230   0.37230
     Eigenvalues ---    0.37230   0.37230   0.37230   0.41364   0.41393
     Eigenvalues ---    0.41554   0.41697   0.45389   0.45389   0.45389
     Eigenvalues ---    0.45389   0.45389   0.45389   0.45389   0.45389
 RFO step:  Lambda=-4.19066392D-01 EMin= 2.36824242D-03
 Linear search not attempted -- first point.
 Maximum step size (   0.300) exceeded in Quadratic search.
    -- Step size scaled by   0.382
 Iteration  1 RMS(Cart)=  0.19735227 RMS(Int)=  0.00989728
 Iteration  2 RMS(Cart)=  0.03492774 RMS(Int)=  0.00028940
 Iteration  3 RMS(Cart)=  0.00054255 RMS(Int)=  0.00004703
 Iteration  4 RMS(Cart)=  0.00000017 RMS(Int)=  0.00004703
 Variable       Old X    -DE/DX   Delta X   Delta X   Delta X     New X
                                 (Linear)    (Quad)   (Total)
    R1        2.64826   0.12032   0.00000   0.05382   0.05390   2.70216
    R2        2.64826   0.01972   0.00000   0.00929   0.00940   2.65766
    R3        2.91018   0.06691   0.00000   0.03625   0.03625   2.94643
    R4        2.64826   0.00276   0.00000   0.00177   0.00174   2.65000
    R5        3.32592  -0.00641   0.00000  -0.00342  -0.00342   3.32250
    R6        2.64826  -0.03203   0.00000  -0.01467  -0.01478   2.63348
    R7        2.02201   0.00873   0.00000   0.00421   0.00421   2.02621
    R8        2.64826  -0.04180   0.00000  -0.01950  -0.01958   2.62868
    R9        3.32592  -0.00485   0.00000  -0.00259  -0.00259   3.32333
   R10        2.64826  -0.02333   0.00000  -0.01076  -0.01073   2.63753
   R11        2.02201   0.00901   0.00000   0.00434   0.00434   2.02635
   R12        2.02201   0.00588   0.00000   0.00283   0.00283   2.02484
   R13        2.64826   0.01572   0.00000   0.00719   0.00723   2.65549
   R14        2.64826   0.01762   0.00000   0.00791   0.00795   2.65622
   R15        2.64826  -0.00425   0.00000  -0.00175  -0.00175   2.64651
   R16        2.02201  -0.04134   0.00000  -0.01993  -0.01993   2.00208
   R17        2.64826  -0.02555   0.00000  -0.01138  -0.01142   2.63684
   R18        3.32592  -0.00210   0.00000  -0.00112  -0.00112   3.32480
   R19        2.64826  -0.02633   0.00000  -0.01183  -0.01187   2.63639
   R20        2.02201   0.00965   0.00000   0.00465   0.00465   2.02666
   R21        2.64826  -0.01202   0.00000  -0.00536  -0.00536   2.64290
   R22        2.02201   0.00935   0.00000   0.00451   0.00451   2.02651
   R23        2.02201   0.00700   0.00000   0.00337   0.00337   2.02538
    A1        2.09440  -0.07923   0.00000  -0.04302  -0.04283   2.05156
    A2        2.09440   0.27860   0.00000   0.15778   0.15769   2.25208
    A3        2.09440  -0.19937   0.00000  -0.11476  -0.11486   1.97954
    A4        2.09440  -0.01203   0.00000  -0.00485  -0.00480   2.08959
    A5        2.09440   0.18690   0.00000   0.10557   0.10554   2.19994
    A6        2.09440  -0.17487   0.00000  -0.10072  -0.10074   1.99365
    A7        2.09440   0.03481   0.00000   0.02022   0.02008   2.11448
    A8        2.09440  -0.01763   0.00000  -0.01026  -0.01019   2.08420
    A9        2.09440  -0.01717   0.00000  -0.00996  -0.00989   2.08451
   A10        2.09440  -0.00175   0.00000  -0.00393  -0.00412   2.09028
   A11        2.09440  -0.00034   0.00000   0.00127   0.00137   2.09576
   A12        2.09440   0.00209   0.00000   0.00266   0.00275   2.09715
   A13        2.09440  -0.00186   0.00000  -0.00402  -0.00407   2.09032
   A14        2.09440   0.00027   0.00000   0.00158   0.00160   2.09600
   A15        2.09440   0.00159   0.00000   0.00245   0.00247   2.09687
   A16        2.09440   0.06007   0.00000   0.03561   0.03575   2.13014
   A17        2.09440  -0.02726   0.00000  -0.01598  -0.01604   2.07835
   A18        2.09440  -0.03281   0.00000  -0.01963  -0.01970   2.07469
   A19        2.09440   0.18998   0.00000   0.10805   0.10801   2.20241
   A20        2.09440  -0.12948   0.00000  -0.07410  -0.07415   2.02025
   A21        2.09440  -0.06050   0.00000  -0.03395  -0.03387   2.06053
   A22        2.09440   0.01718   0.00000   0.01068   0.01072   2.10511
   A23        2.09440   0.01854   0.00000   0.01254   0.01252   2.10691
   A24        2.09440  -0.03572   0.00000  -0.02321  -0.02323   2.07116
   A25        2.09440   0.02026   0.00000   0.01124   0.01120   2.10559
   A26        2.09440  -0.01072   0.00000  -0.00595  -0.00593   2.08846
   A27        2.09440  -0.00955   0.00000  -0.00529  -0.00527   2.08913
   A28        2.09440  -0.01753   0.00000  -0.01139  -0.01148   2.08292
   A29        2.09440   0.00869   0.00000   0.00565   0.00569   2.10008
   A30        2.09440   0.00884   0.00000   0.00575   0.00579   2.10018
   A31        2.09440   0.00365   0.00000   0.00141   0.00136   2.09576
   A32        2.09440  -0.00265   0.00000  -0.00125  -0.00123   2.09317
   A33        2.09440  -0.00100   0.00000  -0.00016  -0.00014   2.09426
   A34        2.09440   0.03693   0.00000   0.02202   0.02206   2.11646
   A35        2.09440  -0.01465   0.00000  -0.00849  -0.00851   2.08588
   A36        2.09440  -0.02229   0.00000  -0.01353  -0.01355   2.08085
    D1        0.00000  -0.00000   0.00000  -0.00000  -0.00000   0.00000
    D2        3.14159  -0.00000   0.00000  -0.00000  -0.00000   3.14159
    D3       -3.14159  -0.00000   0.00000  -0.00000  -0.00000  -3.14159
    D4       -0.00000  -0.00000   0.00000  -0.00000  -0.00000  -0.00000
    D5       -0.00000   0.00000   0.00000   0.00000   0.00000  -0.00000
    D6        3.14159   0.00000   0.00000   0.00000   0.00000   3.14159
    D7        3.14159  -0.00000   0.00000  -0.00000  -0.00000   3.14159
    D8        0.00000  -0.00000   0.00000  -0.00000  -0.00000  -0.00000
    D9       -0.00000  -0.00000   0.00000  -0.00000  -0.00000  -0.00000
   D10        3.14159  -0.00000   0.00000  -0.00000  -0.00000   3.14159
   D11        3.14159  -0.00000   0.00000  -0.00000  -0.00000   3.14159
   D12       -0.00000  -0.00000   0.00000  -0.00000  -0.00000  -0.00000
   D13        0.00000  -0.00000   0.00000   0.00000   0.00000   0.00000
   D14        3.14159   0.00000   0.00000   0.00000   0.00000   3.14159
   D15       -3.14159  -0.00000   0.00000  -0.00000  -0.00000  -3.14159
   D16        0.00000  -0.00000   0.00000  -0.00000  -0.00000   0.00000
   D17       -0.00000   0.00000   0.00000   0.00000   0.00000  -0.00000
   D18        3.14159  -0.00000   0.00000  -0.00000  -0.00000   3.14159
   D19        3.14159  -0.00000   0.00000  -0.00000  -0.00000   3.14159
   D20        0.00000  -0.00000   0.00000  -0.00000  -0.00000   0.00000
   D21        0.00000  -0.00000   0.00000  -0.00000  -0.00000   0.00000
   D22       -3.14159  -0.00000   0.00000  -0.00000  -0.00000  -3.14159
   D23       -3.14159  -0.00000   0.00000  -0.00000  -0.00000  -3.14159
   D24        0.00000  -0.00000   0.00000  -0.00000  -0.00000   0.00000
   D25       -0.00000   0.00000   0.00000   0.00000   0.00000  -0.00000
   D26        3.14159   0.00000   0.00000   0.00000   0.00000   3.14159
   D27        3.14159   0.00000   0.00000   0.00000   0.00000   3.14159
   D28       -0.00000   0.00000   0.00000   0.00000   0.00000  -0.00000
   D29        3.14159  -0.00000   0.00000   0.00000   0.00000   3.14159
   D30        0.00000  -0.00000   0.00000  -0.00000  -0.00000   0.00000
   D31        0.00000  -0.00000   0.00000  -0.00000  -0.00000   0.00000
   D32       -3.14159  -0.00000   0.00000  -0.00000  -0.00000  -3.14159
   D33       -3.14159  -0.00000   0.00000  -0.00000  -0.00000  -3.14159
   D34        0.00000  -0.00000   0.00000  -0.00000  -0.00000   0.00000
   D35       -0.00000   0.00000   0.00000   0.00000   0.00000  -0.00000
   D36        3.14159   0.00000   0.00000   0.00000   0.00000   3.14159
   D37       -0.00000  -0.00000   0.00000  -0.00000  -0.00000  -0.00000
   D38        3.14159  -0.00000   0.00000  -0.00000  -0.00000   3.14159
   D39        3.14159   0.00000   0.00000   0.00000   0.00000   3.14159
   D40       -0.00000   0.00000   0.00000   0.00000   0.00000  -0.00000
   D41       -0.00000   0.00000   0.00000   0.00000   0.00000  -0.00000
   D42       -3.14159  -0.00000   0.00000  -0.00000  -0.00000  -3.14159
   D43        3.14159   0.00000   0.00000   0.00000   0.00000   3.14159
   D44        0.00000  -0.00000   0.00000  -0.00000  -0.00000   0.00000
   D45        0.00000   0.00000   0.00000   0.00000  -0.00000   0.00000
   D46       -3.14159  -0.00000   0.00000  -0.00000  -0.00000  -3.14159
   D47        3.14159   0.00000   0.00000   0.00000   0.00000   3.14159
   D48        0.00000  -0.00000   0.00000  -0.00000  -0.00000   0.00000
   D49        0.00000  -0.00000   0.00000  -0.00000  -0.00000   0.00000
   D50       -3.14159  -0.00000   0.00000  -0.00000  -0.00000  -3.14159
   D51        3.14159   0.00000   0.00000   0.00000   0.00000   3.14159
   D52       -0.00000  -0.00000   0.00000   0.00000   0.00000  -0.00000
         Item               Value     Threshold  Converged?
 Maximum Force            0.278605     0.000450     NO 
 RMS     Force            0.050680     0.000300     NO 
 Maximum Displacement     0.981469     0.001800     NO 
 RMS     Displacement     0.227549     0.001200     NO 
 Predicted change in Energy=-1.482350D-01
 GradGradGradGradGradGradGradGradGradGradGradGradGradGradGradGradGradGrad

                          Input orientation:                          
 ---------------------------------------------------------------------
 Center     Atomic      Atomic             Coordinates (Angstroms)
 Number     Number       Type             X           Y           Z
 ---------------------------------------------------------------------
      1          6           0       -1.645602   -1.731165   -0.482734
      2          6           0       -0.291583   -1.514436   -0.888118
      3          6           0        0.254871   -0.224469   -0.825882
      4          6           0       -0.499315    0.856901   -0.374319
      5          6           0       -1.817860    0.661181    0.023321
      6          6           0       -2.376106   -0.616808   -0.032780
      7          6           0       -2.464097   -3.058077   -0.462283
      8          6           0       -1.999805   -4.325445   -0.853271
      9          6           0       -2.839450   -5.444328   -0.786780
     10          6           0       -4.152632   -5.321944   -0.331158
     11          6           0       -4.626552   -4.069508    0.060199
     12          6           0       -3.789175   -2.951275   -0.005667
     13          1           0        1.270699   -0.067578   -1.131085
     14          1           0       -2.402963    1.489518    0.371654
     15          1           0       -3.393003   -0.751236    0.276994
     16          1           0       -1.008415   -4.454076   -1.204047
     17          1           0       -4.791243   -6.182155   -0.282317
     18          1           0       -5.634199   -3.964680    0.411866
     19          1           0       -4.167422   -1.995670    0.298423
     20         17           0        0.818800   -2.740399   -1.484184
     21         17           0       -2.232083   -7.019350   -1.282687
     22         17           0        0.214427    2.462806   -0.307860
 ---------------------------------------------------------------------
                    Distance matrix (angstroms):
                    1          2          3          4          5
     1  C    0.000000
     2  C    1.429922   0.000000
     3  C    2.449425   1.402320   0.000000
     4  C    2.832634   2.435237   1.393580   0.000000
     5  C    2.451343   2.809546   2.408679   1.391038   0.000000
     6  C    1.406373   2.425402   2.775785   2.410563   1.395723
     7  C    1.559181   2.698885   3.943897   4.381228   3.806088
     8  C    2.644437   3.289531   4.679992   5.416417   5.066355
     9  C    3.912198   4.684650   6.068219   6.734377   6.243168
    10  C    4.381993   5.451149   6.756855   7.178211   6.432308
    11  C    3.827361   5.120514   6.276764   6.441460   5.501775
    12  C    2.512204   3.882831   4.945962   5.045918   4.115430
    13  H    3.419458   2.143164   1.072226   2.135487   3.376824
    14  H    3.417071   3.881841   3.381704   2.140223   1.072298
    15  H    2.142628   3.399818   3.847181   3.373980   2.130808
    16  H    2.888000   3.042227   4.430404   5.399454   5.322357
    17  H    5.454038   6.511646   7.826413   8.244842   7.467640
    18  H    4.658090   6.019734   7.085362   7.087508   6.009492
    19  H    2.653252   4.081862   4.894680   4.695185   3.557384
    20  Cl   2.845124   1.758190   2.661068   3.988708   4.560186
    21  Cl   5.380408   5.850240   7.250105   8.115599   7.801782
    22  Cl   4.591261   4.051073   2.737047   1.758629   2.736006
                    6          7          8          9         10
     6  C    0.000000
     7  C    2.480324   0.000000
     8  C    3.816909   1.405226   0.000000
     9  C    4.907967   2.437290   1.400472   0.000000
    10  C    5.038191   2.827267   2.429048   1.395355   0.000000
    11  C    4.122413   2.443807   2.792800   2.408576   1.395119
    12  C    2.728962   1.405609   2.410108   2.779825   2.420354
    13  H    3.848001   4.831053   5.376133   6.776526   7.593468
    14  H    2.144971   4.623830   5.956238   7.043487   7.067623
    15  H    1.071499   2.594399   3.999183   4.843877   4.673142
    16  H    4.238757   2.148962   1.059455   2.123064   3.376570
    17  H    6.071922   3.899725   3.400806   2.146711   1.072461
    18  H    4.692667   3.411101   3.865170   3.381823   2.142263
    19  H    2.284682   2.146788   3.384200   3.851547   3.385364
    20  Cl   4.101662   3.452913   3.294686   4.602216   5.719176
    21  Cl   6.524994   4.051985   2.737787   1.759408   2.734064
    22  Cl   4.033677   6.138280   7.161051   8.489893   8.926033
                   11         12         13         14         15
    11  C    0.000000
    12  C    1.398565   0.000000
    13  H    7.225799   5.931661   0.000000
    14  H    5.995342   4.667398   4.263632   0.000000
    15  H    3.546769   2.253225   4.919368   2.451554   0.000000
    16  H    3.851899   3.380407   4.943788   6.305070   4.646586
    17  H    2.146559   3.394003   8.651912   8.061397   5.635847
    18  H    1.072385   2.146028   8.077482   6.339620   3.920124
    19  H    2.137371   1.071785   5.944257   3.907073   1.465879
    20  Cl   5.814079   4.843957   2.733654   5.631703   4.979738
    21  Cl   4.029689   4.539224   7.785859   8.669884   6.562743
    22  Cl   8.138899   6.740358   2.862910   2.873979   4.866793
                   16         17         18         19         20
    16  H    0.000000
    17  H    4.259769   0.000000
    18  H    4.924283   2.471772   0.000000
    19  H    4.275570   4.272360   2.457906   0.000000
    20  Cl   2.520690   6.690496   6.836305   5.347403   0.000000
    21  Cl   2.843269   2.872444   4.876158   5.610955   5.259079
    22  Cl   7.081084   9.989631   8.719920   6.280620   5.368644
                   21         22
    21  Cl   0.000000
    22  Cl   9.841087   0.000000
 Stoichiometry    C12H7Cl3
 Framework group  C1[X(C12H7Cl3)]
 Deg. of freedom    60
 Full point group                 C1      NOp   1
 Largest Abelian subgroup         C1      NOp   1
 Largest concise Abelian subgroup C1      NOp   1
                         Standard orientation:                         
 ---------------------------------------------------------------------
 Center     Atomic      Atomic             Coordinates (Angstroms)
 Number     Number       Type             X           Y           Z
 ---------------------------------------------------------------------
      1          6           0        0.545390    0.366321   -0.000002
      2          6           0        1.219388   -0.894791   -0.000001
      3          6           0        2.621159   -0.934013   -0.000000
      4          6           0        3.375116    0.238000   -0.000000
      5          6           0        2.733179    1.472060   -0.000003
      6          6           0        1.338566    1.527680   -0.000003
      7          6           0       -0.985596    0.661495   -0.000001
      8          6           0       -2.015008   -0.295047   -0.000002
      9          6           0       -3.357897    0.102413   -0.000000
     10          6           0       -3.699107    1.455406    0.000002
     11          6           0       -2.687070    2.415685    0.000004
     12          6           0       -1.345580    2.020225    0.000002
     13          1           0        3.121451   -1.882368    0.000001
     14          1           0        3.308149    2.377175   -0.000005
     15          1           0        0.859005    2.485872   -0.000004
     16          1           0       -1.791455   -1.330647   -0.000002
     17          1           0       -4.729133    1.754102    0.000005
     18          1           0       -2.938633    3.458146    0.000008
     19          1           0       -0.579180    2.769462    0.000004
     20         17           0        0.453324   -2.477314    0.000002
     21         17           0       -4.626649   -1.116514   -0.000002
     22         17           0        5.131828    0.155925    0.000001
 ---------------------------------------------------------------------
 Rotational constants (GHZ):           0.9615018           0.1979448           0.1641509
 Standard basis: 6-311+G(d,p) (5D, 7F)
 There are   411 symmetry adapted cartesian basis functions of A   symmetry.
 There are   396 symmetry adapted basis functions of A   symmetry.
   396 basis functions,   647 primitive gaussians,   411 cartesian basis functions
    65 alpha electrons       65 beta electrons
       nuclear repulsion energy      1161.7973259851 Hartrees.
 NAtoms=   22 NActive=   22 NUniq=   22 SFac= 1.00D+00 NAtFMM=   60 NAOKFM=F Big=F
 Integral buffers will be    131072 words long.
 Raffenetti 2 integral format.
 Two-electron integral symmetry is turned on.
 One-electron integrals computed using PRISM.
 NBasis=   396 RedAO= T EigKep=  1.49D-06  NBF=   396
 NBsUse=   391 1.00D-06 EigRej=  9.49D-07 NBFU=   391
 Initial guess from the checkpoint file:  "/scratch/pkc/Gau-18625.chk"
 B after Tr=     0.000000   -0.000000    0.000000
         Rot=    0.999934   -0.000000   -0.000000   -0.011481 Ang=  -1.32 deg.
 ExpMin= 4.38D-02 ExpMax= 1.06D+05 ExpMxC= 3.62D+03 IAcc=3 IRadAn=         5 AccDes= 0.00D+00
 Harris functional with IExCor=  402 and IRadAn=       5 diagonalized for initial guess.
 HarFok:  IExCor=  402 AccDes= 0.00D+00 IRadAn=         5 IDoV= 1 UseB2=F ITyADJ=14
 ICtDFT=  3500011 ScaDFX=  1.000000  1.000000  1.000000  1.000000
 FoFCou: FMM=F IPFlag=           0 FMFlag=      100000 FMFlg1=           0
         NFxFlg=           0 DoJE=T BraDBF=F KetDBF=T FulRan=T
         wScrn=  0.000000 ICntrl=       500 IOpCl=  0 I1Cent=   200000004 NGrid=           0
         NMat0=    1 NMatS0=      1 NMatT0=    0 NMatD0=    1 NMtDS0=    0 NMtDT0=    0
 Petite list used in FoFCou.
 Requested convergence on RMS density matrix=1.00D-08 within  32 cycles.
 Requested convergence on MAX density matrix=1.00D-06.
 Requested convergence on             energy=1.00D-06.
 No special actions if energy rises.
 SCF Done:  E(RB3LYP) =  -1842.26342004     A.U. after   16 cycles
            NFock= 16  Conv=0.81D-08     -V/T= 2.0030
 QCSCF skips out because SCF is already converged.
 Calling FoFJK, ICntrl=      2127 FMM=F ISym2X=0 I1Cent= 0 IOpClX= 0 NMat=1 NMatS=1 NMatT=0.
 ***** Axes restored to original set *****
 -------------------------------------------------------------------
 Center     Atomic                   Forces (Hartrees/Bohr)
 Number     Number              X              Y              Z
 -------------------------------------------------------------------
      1        6          -0.008164206   -0.029161457   -0.002787165
      2        6          -0.016344762    0.012222413    0.007680464
      3        6          -0.005325524    0.000013853    0.001757231
      4        6          -0.001859106   -0.007982698   -0.000886970
      5        6          -0.000429746   -0.006598254   -0.001097576
      6        6           0.026918956    0.016621678   -0.005746865
      7        6           0.010756899    0.020168309    0.000244052
      8        6          -0.010672578    0.000006405    0.003517429
      9        6          -0.003581646    0.011847703    0.003405045
     10        6           0.004320233    0.001756669   -0.001093366
     11        6           0.017310263    0.003931290   -0.004964518
     12        6          -0.005079350   -0.020599702   -0.002195446
     13        1           0.006506030    0.000100606   -0.002124538
     14        1          -0.003990278    0.005739717    0.002392630
     15        1           0.003480023    0.010629257    0.000849638
     16        1           0.012863031   -0.001780027   -0.004572221
     17        1          -0.003731073   -0.006350535    0.000036487
     18        1          -0.007266510    0.000460699    0.002480452
     19        1          -0.009480259   -0.007847011    0.001649649
     20       17          -0.004983775   -0.002120515    0.001243625
     21       17          -0.000375033    0.002534909    0.000599662
     22       17          -0.000871590   -0.003593310   -0.000387700
 -------------------------------------------------------------------
 Cartesian Forces:  Max     0.029161457 RMS     0.008656655

 GradGradGradGradGradGradGradGradGradGradGradGradGradGradGradGradGradGrad
 Berny optimization.
 Using GEDIIS/GDIIS optimizer.
 FormGI is forming the generalized inverse of G from B-inverse, IUseBI=4.
 Internal  Forces:  Max     0.063061809 RMS     0.011485784
 Search for a local minimum.
 Step number   2 out of a maximum of  121
 All quantities printed in internal units (Hartrees-Bohrs-Radians)
 Mixed Optimization -- RFO/linear search
 Update second derivatives using D2CorX and points    1    2
 DE= -3.97D-02 DEPred=-1.48D-01 R= 2.68D-01
 Trust test= 2.68D-01 RLast= 3.00D-01 DXMaxT set to 3.00D-01
 ITU=  0  0
 Use linear search instead of GDIIS.
     Eigenvalues ---    0.00237   0.01478   0.01484   0.02070   0.02070
     Eigenvalues ---    0.02070   0.02070   0.02070   0.02070   0.02070
     Eigenvalues ---    0.02070   0.02070   0.02070   0.02070   0.02070
     Eigenvalues ---    0.02070   0.02070   0.02070   0.02070   0.15970
     Eigenvalues ---    0.16000   0.16000   0.16000   0.16000   0.16000
     Eigenvalues ---    0.16035   0.21994   0.22392   0.23392   0.23493
     Eigenvalues ---    0.23504   0.24436   0.24890   0.25000   0.25000
     Eigenvalues ---    0.25000   0.28452   0.29535   0.29539   0.29539
     Eigenvalues ---    0.37076   0.37190   0.37230   0.37230   0.37230
     Eigenvalues ---    0.37230   0.37230   0.40464   0.41292   0.41310
     Eigenvalues ---    0.41604   0.45052   0.45335   0.45389   0.45389
     Eigenvalues ---    0.45389   0.45389   0.45389   0.45389   2.09706
 RFO step:  Lambda=-1.45592316D-02 EMin= 2.36824242D-03
 Quartic linear search produced a step of -0.31805.
 Iteration  1 RMS(Cart)=  0.15159364 RMS(Int)=  0.00479847
 Iteration  2 RMS(Cart)=  0.00875043 RMS(Int)=  0.00006498
 Iteration  3 RMS(Cart)=  0.00003134 RMS(Int)=  0.00006435
 Iteration  4 RMS(Cart)=  0.00000000 RMS(Int)=  0.00006435
 Variable       Old X    -DE/DX   Delta X   Delta X   Delta X     New X
                                 (Linear)    (Quad)   (Total)
    R1        2.70216  -0.01751  -0.01714   0.02038   0.00338   2.70554
    R2        2.65766   0.00888  -0.00299   0.02108   0.01819   2.67585
    R3        2.94643  -0.00618  -0.01153   0.01495   0.00342   2.94985
    R4        2.65000  -0.00769  -0.00055  -0.01024  -0.01075   2.63925
    R5        3.32250  -0.00209   0.00109  -0.00735  -0.00626   3.31624
    R6        2.63348  -0.01069   0.00470  -0.02837  -0.02377   2.60971
    R7        2.02621   0.00678  -0.00134   0.01546   0.01412   2.04034
    R8        2.62868  -0.00642   0.00623  -0.02575  -0.01966   2.60902
    R9        3.32333  -0.00365   0.00082  -0.01011  -0.00928   3.31404
   R10        2.63753  -0.00610   0.00341  -0.01754  -0.01416   2.62337
   R11        2.02635   0.00739  -0.00138   0.01664   0.01526   2.04161
   R12        2.02484  -0.00439  -0.00090  -0.00536  -0.00626   2.01858
   R13        2.65549  -0.00220  -0.00230   0.00325   0.00102   2.65651
   R14        2.65622   0.01046  -0.00253   0.02271   0.02021   2.67642
   R15        2.64651  -0.00870   0.00056  -0.01458  -0.01399   2.63252
   R16        2.00208   0.01377   0.00634   0.00758   0.01392   2.01600
   R17        2.63684  -0.01034   0.00363  -0.02551  -0.02191   2.61493
   R18        3.32480  -0.00257   0.00036  -0.00654  -0.00619   3.31861
   R19        2.63639  -0.00601   0.00378  -0.01919  -0.01548   2.62091
   R20        2.02666   0.00732  -0.00148   0.01677   0.01529   2.04195
   R21        2.64290  -0.00661   0.00170  -0.01379  -0.01212   2.63079
   R22        2.02651   0.00769  -0.00143   0.01730   0.01587   2.04238
   R23        2.02538  -0.00318  -0.00107  -0.00278  -0.00386   2.02152
    A1        2.05156  -0.01807   0.01362  -0.07998  -0.06610   1.98547
    A2        2.25208  -0.04499  -0.05015   0.00702  -0.04327   2.20882
    A3        1.97954   0.06306   0.03653   0.07297   0.10936   2.08890
    A4        2.08959   0.01717   0.00153   0.03898   0.04069   2.13028
    A5        2.19994  -0.01714  -0.03357   0.03882   0.00516   2.20510
    A6        1.99365  -0.00003   0.03204  -0.07780  -0.04585   1.94781
    A7        2.11448  -0.00440  -0.00639   0.00102  -0.00544   2.10903
    A8        2.08420   0.00127   0.00324  -0.00423  -0.00096   2.08325
    A9        2.08451   0.00313   0.00314   0.00322   0.00640   2.09091
   A10        2.09028  -0.00025   0.00131  -0.00347  -0.00242   2.08786
   A11        2.09576  -0.00105  -0.00043  -0.00183  -0.00214   2.09362
   A12        2.09715   0.00130  -0.00087   0.00531   0.00456   2.10170
   A13        2.09032  -0.00190   0.00130  -0.00672  -0.00561   2.08471
   A14        2.09600   0.00090  -0.00051   0.00285   0.00244   2.09843
   A15        2.09687   0.00100  -0.00079   0.00387   0.00317   2.10004
   A16        2.13014   0.00745  -0.01137   0.05018   0.03888   2.16902
   A17        2.07835   0.00673   0.00510   0.01694   0.02201   2.10036
   A18        2.07469  -0.01417   0.00627  -0.06712  -0.06089   2.01380
   A19        2.20241  -0.04438  -0.03435  -0.03091  -0.06532   2.13709
   A20        2.02025   0.05692   0.02358   0.08805   0.11158   2.13183
   A21        2.06053  -0.01255   0.01077  -0.05713  -0.04626   2.01427
   A22        2.10511   0.00581  -0.00341   0.02441   0.02111   2.12622
   A23        2.10691  -0.00279  -0.00398   0.00048  -0.00355   2.10336
   A24        2.07116  -0.00302   0.00739  -0.02489  -0.01755   2.05361
   A25        2.10559   0.00604  -0.00356   0.02202   0.01846   2.12406
   A26        2.08846  -0.00398   0.00189  -0.01374  -0.01186   2.07661
   A27        2.08913  -0.00206   0.00167  -0.00828  -0.00661   2.08252
   A28        2.08292  -0.00640   0.00365  -0.02953  -0.02599   2.05693
   A29        2.10008   0.00234  -0.00181   0.01140   0.00964   2.10972
   A30        2.10018   0.00405  -0.00184   0.01814   0.01635   2.11653
   A31        2.09576   0.00511  -0.00043   0.01587   0.01533   2.11109
   A32        2.09317  -0.00286   0.00039  -0.00948  -0.00904   2.08413
   A33        2.09426  -0.00226   0.00004  -0.00639  -0.00629   2.08797
   A34        2.11646   0.00197  -0.00702   0.02437   0.01734   2.13380
   A35        2.08588   0.01117   0.00271   0.03697   0.03968   2.12556
   A36        2.08085  -0.01314   0.00431  -0.06134  -0.05703   2.02382
    D1        0.00000  -0.00000   0.00000   0.00000   0.00000   0.00000
    D2        3.14159   0.00000   0.00000   0.00000   0.00000  -3.14159
    D3       -3.14159  -0.00000   0.00000  -0.00000  -0.00000  -3.14159
    D4       -0.00000   0.00000   0.00000   0.00000   0.00000  -0.00000
    D5       -0.00000   0.00000  -0.00000  -0.00000  -0.00000  -0.00000
    D6        3.14159  -0.00000  -0.00000  -0.00000  -0.00000   3.14159
    D7        3.14159   0.00000   0.00000   0.00000   0.00000   3.14159
    D8       -0.00000  -0.00000   0.00000  -0.00000  -0.00000  -0.00000
    D9       -0.00000  -0.00000   0.00000  -0.00000  -0.00000  -0.00001
   D10        3.14159  -0.00000   0.00000  -0.00000  -0.00000   3.14159
   D11        3.14159  -0.00000   0.00000  -0.00000  -0.00000   3.14159
   D12       -0.00000  -0.00000   0.00000  -0.00000  -0.00000  -0.00001
   D13        0.00000  -0.00000  -0.00000  -0.00000  -0.00000  -0.00000
   D14        3.14159   0.00000  -0.00000   0.00000   0.00000   3.14159
   D15       -3.14159  -0.00000   0.00000  -0.00000  -0.00000  -3.14159
   D16        0.00000  -0.00000   0.00000  -0.00000  -0.00000   0.00000
   D17       -0.00000   0.00000  -0.00000   0.00000   0.00000  -0.00000
   D18        3.14159   0.00000   0.00000   0.00000   0.00000   3.14159
   D19        3.14159   0.00000   0.00000   0.00000   0.00000   3.14159
   D20        0.00000  -0.00000   0.00000  -0.00000  -0.00000   0.00000
   D21        0.00000  -0.00000   0.00000  -0.00000  -0.00000   0.00000
   D22       -3.14159  -0.00000   0.00000  -0.00000  -0.00000  -3.14159
   D23       -3.14159  -0.00000   0.00000  -0.00000  -0.00000  -3.14159
   D24        0.00000   0.00000   0.00000   0.00000   0.00000   0.00000
   D25       -0.00000   0.00000  -0.00000   0.00000   0.00000  -0.00000
   D26        3.14159   0.00000  -0.00000   0.00000   0.00000  -3.14159
   D27        3.14159   0.00000  -0.00000   0.00000   0.00000   3.14159
   D28       -0.00000   0.00000  -0.00000   0.00000   0.00000  -0.00000
   D29        3.14159   0.00000  -0.00000   0.00000   0.00000   3.14159
   D30        0.00000   0.00000   0.00000  -0.00000  -0.00000   0.00000
   D31        0.00000   0.00000   0.00000   0.00000   0.00000   0.00000
   D32       -3.14159  -0.00000   0.00000  -0.00000  -0.00000  -3.14159
   D33       -3.14159   0.00000   0.00000  -0.00000  -0.00000  -3.14159
   D34        0.00000   0.00000   0.00000  -0.00000  -0.00000  -0.00000
   D35       -0.00000  -0.00000  -0.00000   0.00000  -0.00000  -0.00000
   D36        3.14159  -0.00000  -0.00000  -0.00000  -0.00000   3.14159
   D37       -0.00000  -0.00000   0.00000  -0.00000  -0.00000  -0.00000
   D38        3.14159  -0.00000   0.00000  -0.00000  -0.00000   3.14159
   D39        3.14159   0.00000  -0.00000   0.00000   0.00000   3.14159
   D40       -0.00000   0.00000  -0.00000   0.00000   0.00000  -0.00000
   D41       -0.00000  -0.00000  -0.00000  -0.00000  -0.00000  -0.00000
   D42       -3.14159  -0.00000   0.00000  -0.00000  -0.00000  -3.14159
   D43        3.14159   0.00000  -0.00000   0.00000   0.00000   3.14159
   D44        0.00000  -0.00000   0.00000  -0.00000  -0.00000   0.00000
   D45        0.00000   0.00000   0.00000   0.00000   0.00000   0.00000
   D46       -3.14159  -0.00000   0.00000  -0.00000  -0.00000  -3.14159
   D47        3.14159   0.00000  -0.00000   0.00000   0.00000   3.14159
   D48        0.00000  -0.00000   0.00000  -0.00000  -0.00000   0.00000
   D49        0.00000  -0.00000   0.00000  -0.00000  -0.00000   0.00000
   D50       -3.14159   0.00000   0.00000  -0.00000  -0.00000  -3.14159
   D51        3.14159   0.00000  -0.00000   0.00000   0.00000   3.14159
   D52       -0.00000   0.00000  -0.00000   0.00000   0.00000  -0.00000
         Item               Value     Threshold  Converged?
 Maximum Force            0.063062     0.000450     NO 
 RMS     Force            0.011486     0.000300     NO 
 Maximum Displacement     0.559098     0.001800     NO 
 RMS     Displacement     0.154511     0.001200     NO 
 Predicted change in Energy=-9.690419D-03
 GradGradGradGradGradGradGradGradGradGradGradGradGradGradGradGradGradGrad

                          Input orientation:                          
 ---------------------------------------------------------------------
 Center     Atomic      Atomic             Coordinates (Angstroms)
 Number     Number       Type             X           Y           Z
 ---------------------------------------------------------------------
      1          6           0       -1.755094   -1.672470   -0.435637
      2          6           0       -0.394648   -1.522118   -0.855603
      3          6           0        0.254458   -0.285633   -0.837231
      4          6           0       -0.400832    0.851607   -0.407761
      5          6           0       -1.714310    0.766185    0.008924
      6          6           0       -2.357689   -0.463806   -0.010115
      7          6           0       -2.580017   -2.997488   -0.412712
      8          6           0       -2.040090   -4.229232   -0.821930
      9          6           0       -2.788209   -5.404093   -0.796108
     10          6           0       -4.103252   -5.419418   -0.365733
     11          6           0       -4.664790   -4.219483    0.044632
     12          6           0       -3.926919   -3.039156    0.023212
     13          1           0        1.281651   -0.222061   -1.163703
     14          1           0       -2.236341    1.649649    0.346829
     15          1           0       -3.371729   -0.455374    0.325546
     16          1           0       -1.032088   -4.291371   -1.165695
     17          1           0       -4.671313   -6.338489   -0.351191
     18          1           0       -5.690219   -4.202517    0.385658
     19          1           0       -4.438654   -2.160956    0.356745
     20         17           0        0.659542   -2.796527   -1.442251
     21         17           0       -2.038742   -6.901854   -1.324323
     22         17           0        0.436575    2.392413   -0.394271
[...]
     18          1           0       -3.168365    2.721157   -1.752635
     19          1           0       -0.733196    2.334938   -1.537661
     20         17           0        0.343730   -2.084686   -1.111396
     21         17           0       -4.350992   -0.982771    1.178996
     22         17           0        5.033293    0.038781    0.501265
 ---------------------------------------------------------------------
 Rotational constants (GHZ):           0.9418115           0.1973711           0.1812665

 **********************************************************************

            Population analysis using the SCF Density.

 **********************************************************************

 Orbital symmetries:
       Occupied  (A) (A) (A) (A) (A) (A) (A) (A) (A) (A) (A) (A)
                 (A) (A) (A) (A) (A) (A) (A) (A) (A) (A) (A) (A)
                 (A) (A) (A) (A) (A) (A) (A) (A) (A) (A) (A) (A)
                 (A) (A) (A) (A) (A) (A) (A) (A) (A) (A) (A) (A)
                 (A) (A) (A) (A) (A) (A) (A) (A) (A) (A) (A) (A)
                 (A) (A) (A) (A) (A)
       Virtual   (A) (A) (A) (A) (A) (A) (A) (A) (A) (A) (A) (A)
                 (A) (A) (A) (A) (A) (A) (A) (A) (A) (A) (A) (A)
                 (A) (A) (A) (A) (A) (A) (A) (A) (A) (A) (A) (A)
                 (A) (A) (A) (A) (A) (A) (A) (A) (A) (A) (A) (A)
                 (A) (A) (A) (A) (A) (A) (A) (A) (A) (A) (A) (A)
                 (A) (A) (A) (A) (A) (A) (A) (A) (A) (A) (A) (A)
                 (A) (A) (A) (A) (A) (A) (A) (A) (A) (A) (A) (A)
                 (A) (A) (A) (A) (A) (A) (A) (A) (A) (A) (A) (A)
                 (A) (A) (A) (A) (A) (A) (A) (A) (A) (A) (A) (A)
                 (A) (A) (A) (A) (A) (A) (A) (A) (A) (A) (A) (A)
                 (A) (A) (A) (A) (A) (A) (A) (A) (A) (A) (A) (A)
                 (A) (A) (A) (A) (A) (A) (A) (A) (A) (A) (A) (A)
                 (A) (A) (A) (A) (A) (A) (A) (A) (A) (A) (A) (A)
                 (A) (A) (A) (A) (A) (A) (A) (A) (A) (A) (A) (A)
                 (A) (A) (A) (A) (A) (A) (A) (A) (A) (A) (A) (A)
                 (A) (A) (A) (A) (A) (A) (A) (A) (A) (A) (A) (A)
                 (A) (A) (A) (A) (A) (A) (A) (A) (A) (A) (A) (A)
                 (A) (A) (A) (A) (A) (A) (A) (A) (A) (A) (A) (A)
                 (A) (A) (A) (A) (A) (A) (A) (A) (A) (A) (A) (A)
                 (A) (A) (A) (A) (A) (A) (A) (A) (A) (A) (A) (A)
                 (A) (A) (A) (A) (A) (A) (A) (A) (A) (A) (A) (A)
                 (A) (A) (A) (A) (A) (A) (A) (A) (A) (A) (A) (A)
                 (A) (A) (A) (A) (A) (A) (A) (A) (A) (A) (A) (A)
                 (A) (A) (A) (A) (A) (A) (A) (A) (A) (A) (A) (A)
                 (A) (A) (A) (A) (A) (A) (A) (A) (A) (A) (A) (A)
                 (A) (A) (A) (A) (A) (A) (A) (A) (A) (A) (A) (A)
                 (A) (A) (A) (A) (A) (A) (A) (A) (A) (A) (A) (A)
                 (A) (A) (A) (A) (A) (A)
 The electronic state is 1-A.
 Alpha  occ. eigenvalues -- -101.56802-101.56663-101.55983 -10.26246 -10.25979
 Alpha  occ. eigenvalues --  -10.25015 -10.21998 -10.21332 -10.21077 -10.20876
 Alpha  occ. eigenvalues --  -10.20640 -10.20010 -10.19954 -10.19893 -10.19629
 Alpha  occ. eigenvalues --   -9.48257  -9.48137  -9.47441  -7.24722  -7.24604
 Alpha  occ. eigenvalues --   -7.23900  -7.23738  -7.23701  -7.23623  -7.23569
 Alpha  occ. eigenvalues --   -7.22925  -7.22890  -0.92759  -0.90609  -0.88871
 Alpha  occ. eigenvalues --   -0.85796  -0.84124  -0.79554  -0.76856  -0.75589
 Alpha  occ. eigenvalues --   -0.73776  -0.64981  -0.64334  -0.62109  -0.60171
 Alpha  occ. eigenvalues --   -0.54927  -0.52229  -0.51437  -0.48920  -0.48870
 Alpha  occ. eigenvalues --   -0.47169  -0.45672  -0.45149  -0.44630  -0.42775
 Alpha  occ. eigenvalues --   -0.41260  -0.40981  -0.39448  -0.38037  -0.37816
 Alpha  occ. eigenvalues --   -0.37515  -0.34720  -0.33705  -0.33412  -0.32776
 Alpha  occ. eigenvalues --   -0.32327  -0.28718  -0.27671  -0.26465  -0.25534
 Alpha virt. eigenvalues --   -0.05740  -0.04812  -0.03423  -0.02386  -0.01342
 Alpha virt. eigenvalues --   -0.00708   0.00455   0.01100   0.01434   0.01864
 Alpha virt. eigenvalues --    0.02449   0.02982   0.03958   0.04264   0.04914
 Alpha virt. eigenvalues --    0.05113   0.05350   0.06125   0.07156   0.07300
 Alpha virt. eigenvalues --    0.08094   0.08511   0.08894   0.09377   0.09733
 Alpha virt. eigenvalues --    0.10271   0.10617   0.10937   0.11275   0.11842
 Alpha virt. eigenvalues --    0.11999   0.12354   0.12447   0.13254   0.13371
 Alpha virt. eigenvalues --    0.13823   0.14571   0.14702   0.14973   0.15573
 Alpha virt. eigenvalues --    0.16124   0.16303   0.16798   0.17334   0.17847
 Alpha virt. eigenvalues --    0.17972   0.18598   0.18913   0.19144   0.19355
 Alpha virt. eigenvalues --    0.19852   0.20275   0.20503   0.20935   0.21591
 Alpha virt. eigenvalues --    0.22038   0.22308   0.22350   0.22738   0.23279
 Alpha virt. eigenvalues --    0.23911   0.23969   0.24379   0.25119   0.25439
 Alpha virt. eigenvalues --    0.25888   0.26707   0.27114   0.27357   0.28060
 Alpha virt. eigenvalues --    0.28126   0.28365   0.28811   0.29217   0.29657
 Alpha virt. eigenvalues --    0.30267   0.30394   0.30970   0.31935   0.32536
 Alpha virt. eigenvalues --    0.33405   0.34284   0.35195   0.36161   0.42143
 Alpha virt. eigenvalues --    0.42332   0.43362   0.45001   0.45442   0.46024
 Alpha virt. eigenvalues --    0.46484   0.47107   0.47797   0.48317   0.49291
 Alpha virt. eigenvalues --    0.50288   0.51296   0.52335   0.53477   0.54078
 Alpha virt. eigenvalues --    0.55396   0.55852   0.56289   0.56885   0.57387
 Alpha virt. eigenvalues --    0.57488   0.58915   0.59420   0.60251   0.61134
 Alpha virt. eigenvalues --    0.62018   0.62386   0.63209   0.63818   0.64908
 Alpha virt. eigenvalues --    0.66155   0.66454   0.67828   0.68003   0.68711
 Alpha virt. eigenvalues --    0.69355   0.69590   0.69794   0.70615   0.71393
 Alpha virt. eigenvalues --    0.72187   0.73071   0.73511   0.75832   0.77759
 Alpha virt. eigenvalues --    0.81260   0.81896   0.82470   0.83020   0.84172
 Alpha virt. eigenvalues --    0.84455   0.85115   0.85178   0.85485   0.85703
 Alpha virt. eigenvalues --    0.85825   0.86247   0.86940   0.87246   0.88517
 Alpha virt. eigenvalues --    0.88979   0.89631   0.90369   0.91076   0.92425
 Alpha virt. eigenvalues --    0.92878   0.94084   0.94660   0.95733   0.96308
 Alpha virt. eigenvalues --    0.96861   0.98061   0.99554   0.99641   1.00464
 Alpha virt. eigenvalues --    1.02676   1.03768   1.05032   1.05778   1.07576
 Alpha virt. eigenvalues --    1.10240   1.10921   1.12090   1.14269   1.15335
 Alpha virt. eigenvalues --    1.19064   1.20353   1.23943   1.24386   1.24604
 Alpha virt. eigenvalues --    1.25761   1.29131   1.30452   1.30901   1.33088
 Alpha virt. eigenvalues --    1.36056   1.40175   1.44159   1.48004   1.49264
 Alpha virt. eigenvalues --    1.50206   1.51381   1.52190   1.54383   1.54709
 Alpha virt. eigenvalues --    1.56089   1.57093   1.57513   1.60444   1.61289
 Alpha virt. eigenvalues --    1.63090   1.64364   1.66727   1.67470   1.69030
 Alpha virt. eigenvalues --    1.71161   1.71954   1.72737   1.74686   1.77651
 Alpha virt. eigenvalues --    1.79387   1.84883   1.85561   1.87355   1.89162
 Alpha virt. eigenvalues --    1.90143   1.90772   1.91561   1.93047   1.93912
 Alpha virt. eigenvalues --    1.94985   1.96024   1.97107   1.97565   1.99953
 Alpha virt. eigenvalues --    2.00026   2.00896   2.02395   2.04650   2.06002
 Alpha virt. eigenvalues --    2.07271   2.09817   2.15557   2.18442   2.19091
 Alpha virt. eigenvalues --    2.23879   2.27006   2.27513   2.28451   2.29804
 Alpha virt. eigenvalues --    2.30816   2.34704   2.35946   2.38119   2.39384
 Alpha virt. eigenvalues --    2.40376   2.41934   2.43602   2.46697   2.50649
 Alpha virt. eigenvalues --    2.52590   2.54152   2.55027   2.55666   2.58798
 Alpha virt. eigenvalues --    2.61386   2.64415   2.66514   2.67748   2.68469
 Alpha virt. eigenvalues --    2.69565   2.70693   2.71774   2.73745   2.74368
 Alpha virt. eigenvalues --    2.76142   2.76812   2.77993   2.78872   2.79498
 Alpha virt. eigenvalues --    2.80477   2.81162   2.83803   2.84026   2.85137
 Alpha virt. eigenvalues --    2.85926   2.88847   2.92193   2.98538   2.99902
 Alpha virt. eigenvalues --    3.07156   3.08628   3.10949   3.14450   3.16653
 Alpha virt. eigenvalues --    3.19523   3.21199   3.24055   3.32696   3.35637
 Alpha virt. eigenvalues --    3.36606   3.43181   3.49864   3.52892   3.59013
 Alpha virt. eigenvalues --    3.59663   3.70070   3.76635   3.79802   3.85869
 Alpha virt. eigenvalues --    3.99742   4.05941   4.10609   4.12442   4.13393
 Alpha virt. eigenvalues --    4.39256   4.80696   4.83749   9.76460   9.78192
 Alpha virt. eigenvalues --    9.80657  23.44876  23.61569  23.86184  23.90454
 Alpha virt. eigenvalues --   23.91493  23.94213  24.00572  24.05045  24.05528
 Alpha virt. eigenvalues --   24.07756  24.13602  24.16593  25.82306  25.83391
 Alpha virt. eigenvalues --   25.88894  26.10478  26.13162  26.26858  26.58604
 Alpha virt. eigenvalues --   26.60474  26.71367 215.75496 215.77391 215.80458
          Condensed to atoms (all electrons):
               1          2          3          4          5          6
     1  C   35.673068  -8.766498  -0.757398  -6.995189  -0.038447  -8.191742
     2  C   -8.766498  43.147037  -9.176872  -1.474732   0.849159 -15.310530
     3  C   -0.757398  -9.176872  34.392073  -2.112794  -6.310979  -9.289301
     4  C   -6.995189  -1.474732  -2.112794  16.947513  -3.148833   3.090343
     5  C   -0.038447   0.849159  -6.310979  -3.148833  19.384649  -4.627327
     6  C   -8.191742 -15.310530  -9.289301   3.090343  -4.627327  38.952675
     7  C   -1.325465  -7.066527   0.401909  -0.268911  -0.175370   3.030594
     8  C   -9.363410   6.534345   3.117907  -0.712489   0.323278  -6.810386
     9  C    3.344905  -2.544658  -1.424451   0.199902  -0.069625   2.992594
    10  C    0.030674   0.140639   0.193123  -0.055179  -0.012515  -0.360423
    11  C    0.528472  -0.094524  -0.189140   0.080528   0.032216   0.340754
    12  C    1.118307  -0.922762  -0.101689   0.362647  -0.069901   1.804768
    13  H    0.082039   0.083650   0.077153   0.040125   0.031493   0.026009
    14  H   -0.052361   0.004215   0.033586   0.104441   0.238195   0.015225
    15  H   -0.005624  -0.007309  -0.006480   0.005892  -0.066663   0.363189
    16  H    0.002898   0.121214   0.013589  -0.000806   0.001958  -0.072660
    17  H    0.008155  -0.001619  -0.000175   0.000009  -0.000016  -0.000500
    18  H    0.010214   0.002420   0.000006  -0.000075  -0.000562  -0.005932
    19  H   -0.044108  -0.034569   0.000275   0.004989  -0.008943   0.087528
    20  Cl  -0.351828   0.663571  -1.398779   0.032921   0.198233   0.357691
    21  Cl  -0.045500  -0.035204  -0.004869   0.006869  -0.002453   0.040647
    22  Cl  -0.117726   0.124688   0.041339  -1.086078   0.083787   0.287468
               7          8          9         10         11         12
     1  C   -1.325465  -9.363410   3.344905   0.030674   0.528472   1.118307
     2  C   -7.066527   6.534345  -2.544658   0.140639  -0.094524  -0.922762
     3  C    0.401909   3.117907  -1.424451   0.193123  -0.189140  -0.101689
     4  C   -0.268911  -0.712489   0.199902  -0.055179   0.080528   0.362647
     5  C   -0.175370   0.323278  -0.069625  -0.012515   0.032216  -0.069901
     6  C    3.030594  -6.810386   2.992594  -0.360423   0.340754   1.804768
     7  C   20.960970  -0.095932  -2.653201  -1.622430  -1.584166  -3.652908
     8  C   -0.095932  43.982655  -9.392333  -6.871763  -2.716852 -10.800071
     9  C   -2.653201  -9.392333  19.934454  -2.271741   0.027899  -2.514232
    10  C   -1.622430  -6.871763  -2.271741  15.247502   0.739570   1.475481
    11  C   -1.584166  -2.716852   0.027899   0.739570   8.075300   0.519140
    12  C   -3.652908 -10.800071  -2.514232   1.475481   0.519140  18.959495
    13  H    0.011770  -0.002678  -0.000129   0.000061  -0.000114   0.001082
    14  H    0.014168   0.000134   0.000080   0.000002  -0.000241  -0.002370
    15  H    0.008033  -0.009167  -0.028588   0.008598  -0.003914   0.087803
    16  H    0.010109   0.170599   0.010494   0.061007  -0.022819   0.065314
    17  H    0.042946   0.000045   0.078760   0.279124   0.004949  -0.058249
    18  H    0.006500  -0.044083  -0.011432   0.001567   0.367898   0.020943
    19  H    0.050993   0.006535   0.003589  -0.009076  -0.033296   0.329188
    20  Cl  -0.282178  -0.619448   0.666262  -0.135414   0.042309  -0.286315
    21  Cl  -0.352559   0.708263  -1.095252  -0.183791   0.173282   0.055159
    22  Cl  -0.030720  -0.022363   0.005779  -0.001444   0.003900   0.014204
              13         14         15         16         17         18
     1  C    0.082039  -0.052361  -0.005624   0.002898   0.008155   0.010214
     2  C    0.083650   0.004215  -0.007309   0.121214  -0.001619   0.002420
     3  C    0.077153   0.033586  -0.006480   0.013589  -0.000175   0.000006
     4  C    0.040125   0.104441   0.005892  -0.000806   0.000009  -0.000075
     5  C    0.031493   0.238195  -0.066663   0.001958  -0.000016  -0.000562
     6  C    0.026009   0.015225   0.363189  -0.072660  -0.000500  -0.005932
     7  C    0.011770   0.014168   0.008033   0.010109   0.042946   0.006500
     8  C   -0.002678   0.000134  -0.009167   0.170599   0.000045  -0.044083
     9  C   -0.000129   0.000080  -0.028588   0.010494   0.078760  -0.011432
    10  C    0.000061   0.000002   0.008598   0.061007   0.279124   0.001567
    11  C   -0.000114  -0.000241  -0.003914  -0.022819   0.004949   0.367898
    12  C    0.001082  -0.002370   0.087803   0.065314  -0.058249   0.020943
    13  H    0.495556  -0.000245   0.000041   0.000016  -0.000000   0.000000
    14  H   -0.000245   0.511373  -0.007633   0.000002  -0.000000   0.000000
    15  H    0.000041  -0.007633   0.522466  -0.000004  -0.000001   0.000024
    16  H    0.000016   0.000002  -0.000004   0.501268  -0.000250   0.000066
    17  H   -0.000000  -0.000000  -0.000001  -0.000250   0.512276  -0.008045
    18  H    0.000000   0.000000   0.000024   0.000066  -0.008045   0.531806
    19  H    0.000002   0.000029  -0.000484  -0.000182  -0.000193  -0.007294
    20  Cl  -0.007124   0.001147  -0.002185  -0.002866   0.000221  -0.000217
    21  Cl  -0.000018  -0.000001  -0.000102  -0.009816  -0.007764   0.000660
    22  Cl  -0.011550  -0.012546   0.000426  -0.000082   0.000000  -0.000001
              19         20         21         22
     1  C   -0.044108  -0.351828  -0.045500  -0.117726
     2  C   -0.034569   0.663571  -0.035204   0.124688
     3  C    0.000275  -1.398779  -0.004869   0.041339
     4  C    0.004989   0.032921   0.006869  -1.086078
     5  C   -0.008943   0.198233  -0.002453   0.083787
     6  C    0.087528   0.357691   0.040647   0.287468
     7  C    0.050993  -0.282178  -0.352559  -0.030720
     8  C    0.006535  -0.619448   0.708263  -0.022363
     9  C    0.003589   0.666262  -1.095252   0.005779
    10  C   -0.009076  -0.135414  -0.183791  -0.001444
    11  C   -0.033296   0.042309   0.173282   0.003900
    12  C    0.329188  -0.286315   0.055159   0.014204
    13  H    0.000002  -0.007124  -0.000018  -0.011550
    14  H    0.000029   0.001147  -0.000001  -0.012546
    15  H   -0.000484  -0.002185  -0.000102   0.000426
    16  H   -0.000182  -0.002866  -0.009816  -0.000082
    17  H   -0.000193   0.000221  -0.007764   0.000000
    18  H   -0.007294  -0.000217   0.000660  -0.000001
    19  H    0.529596  -0.001506   0.000357  -0.000055
    20  Cl  -0.001506  17.715821   0.008028  -0.025606
    21  Cl   0.000357   0.008028  17.340059   0.000096
    22  Cl  -0.000055  -0.025606   0.000096  17.359478
 Mulliken charges:
               1
     1  C    1.256566
     2  C   -0.235134
     3  C   -1.498035
     4  C    0.978909
     5  C   -0.611334
     6  C   -0.720685
     7  C    0.572375
     8  C   -1.382784
     9  C    0.740924
    10  C   -0.653571
    11  C   -0.291152
    12  C   -0.405034
    13  H    0.172860
    14  H    0.152799
    15  H    0.141685
    16  H    0.150949
    17  H    0.150326
    18  H    0.135537
    19  H    0.126624
    20  Cl   0.427261
    21  Cl   0.403908
    22  Cl   0.387007
 Sum of Mulliken charges =  -0.00000
 Mulliken charges with hydrogens summed into heavy atoms:
               1
     1  C    1.256566
     2  C   -0.235134
     3  C   -1.325175
     4  C    0.978909
     5  C   -0.458535
     6  C   -0.579001
     7  C    0.572375
     8  C   -1.231835
     9  C    0.740924
    10  C   -0.503245
    11  C   -0.155614
    12  C   -0.278410
    20  Cl   0.427261
    21  Cl   0.403908
    22  Cl   0.387007
 Electronic spatial extent (au):  <R**2>=           5572.8152
 Charge=              0.0000 electrons
 Dipole moment (field-independent basis, Debye):
    X=              0.0532    Y=              2.3921    Z=             -0.4603  Tot=              2.4366
 Quadrupole moment (field-independent basis, Debye-Ang):
   XX=           -113.1534   YY=           -101.9547   ZZ=           -109.5159
   XY=             -3.8675   XZ=              3.8311   YZ=             -1.7405
 Traceless Quadrupole moment (field-independent basis, Debye-Ang):
   XX=             -4.9454   YY=              6.2533   ZZ=             -1.3079
   XY=             -3.8675   XZ=              3.8311   YZ=             -1.7405
 Octapole moment (field-independent basis, Debye-Ang**2):
  XXX=            -20.6065  YYY=             -2.4019  ZZZ=              1.6800  XYY=              4.5822
  XXY=             13.0944  XXZ=            -17.0980  XZZ=              0.5996  YZZ=             -0.9908
  YYZ=             -3.1206  XYZ=             13.3113
 Hexadecapole moment (field-independent basis, Debye-Ang**3):
 XXXX=          -5958.2443 YYYY=          -1052.6341 ZZZZ=           -515.1267 XXXY=            -77.2980
 XXXZ=             50.0277 YYYX=             22.7751 YYYZ=             -0.4573 ZZZX=            -14.4645
 ZZZY=             -3.3562 XXYY=          -1110.6580 XXZZ=          -1084.0801 YYZZ=           -245.9982
 XXYZ=            -11.3059 YYXZ=             23.9929 ZZXY=              4.9162
 N-N= 1.174528373691D+03 E-N=-6.701040958863D+03  KE= 1.836983791182D+03
 1\1\GINC-DAMODAR\FOpt\RB3LYP\6-311+G(d,p)\C12H7Cl3\PKC\15-Mar-2022\0\\
 # opt b3lyp/6-311+g(d,p) scf=xqc\\Title Card Required\\0,1\C,-1.786347
 4576,-1.6871078255,-0.4433549829\C,-0.7311092914,-1.3940685198,-1.3196
 412145\C,-0.0364706692,-0.1880950969,-1.2611498151\C,-0.4000361246,0.7
 525095356,-0.3059805506\C,-1.4443647689,0.5093630329,0.579138341\C,-2.
 1210526413,-0.701739807,0.4974984356\C,-2.5593273124,-2.9600034446,-0.
 4675577886\C,-1.9239696649,-4.190022098,-0.2587132417\C,-2.6774087403,
 -5.357141196,-0.2421004873\C,-4.0560114004,-5.3388231025,-0.4309657193
 \C,-4.6843918479,-4.1136788114,-0.637034587\C,-3.9465303946,-2.9324766
 164,-0.6526811994\H,0.7670227613,0.0117604417,-1.9562256911\H,-1.71782
 08546,1.2486635244,1.3203492325\H,-2.9260306386,-0.9058061308,1.193795
 7886\H,-0.8546407314,-4.2372946326,-0.1019743841\H,-4.6205401714,-6.26
 2063627,-0.4167947092\H,-5.7569380669,-4.0831619121,-0.7902198909\H,-4
 .4441394318,-1.9853609629,-0.8251211357\Cl,-0.2608984916,-2.5249590452
 ,-2.5812195944\Cl,-1.8668322956,-6.8943778836,0.0321464446\Cl,0.475129
 3341,2.2716910375,-0.2249090605\\Version=EM64L-G16RevB.01\State=1-A\HF
 =-1842.28522\RMSD=3.901e-09\RMSF=2.637e-05\Dipole=-0.8386524,0.3621543
 ,0.2906342\Quadrupole=5.9969428,-5.1862942,-0.8106486,0.0156481,-1.163
 8173,1.7266438\PG=C01 [X(C12H7Cl3)]\\@


 OPTIMIST - A PESSIMIST WHO LACKS EXPERIENCE
 Job cpu time:       0 days 12 hours 58 minutes 48.5 seconds.
 Elapsed time:       0 days  3 hours 46 minutes 57.0 seconds.
 File lengths (MBytes):  RWF=    108 Int=      0 D2E=      0 Chk=     17 Scr=      1
 Normal termination of Gaussian 16 at Tue Mar 15 04:07:16 2022.
