 Entering Gaussian System, Link 0=g16
 Input=2,3prime,5-Trichlorobiphenyl.gjf
 Output=2,3prime,5-Trichlorobiphenyl.log
 Initial command:
 /usr/local/g16/l1.exe "/scratch/pkc/Gau-19298.inp" -scrdir="/scratch/pkc/"
 Entering Link 1 = /usr/local/g16/l1.exe PID=     19299.
  
 Copyright (c) 1988-2017, Gaussian, Inc.  All Rights Reserved.
  
 This is part of the Gaussian(R) 16 program.  It is based on
 the Gaussian(R) 09 system (copyright 2009, Gaussian, Inc.),
 the Gaussian(R) 03 system (copyright 2003, Gaussian, Inc.),
 the Gaussian(R) 98 system (copyright 1998, Gaussian, Inc.),
 the Gaussian(R) 94 system (copyright 1995, Gaussian, Inc.),
 the Gaussian 92(TM) system (copyright 1992, Gaussian, Inc.),
 the Gaussian 90(TM) system (copyright 1990, Gaussian, Inc.),
 the Gaussian 88(TM) system (copyright 1988, Gaussian, Inc.),
 the Gaussian 86(TM) system (copyright 1986, Carnegie Mellon
 University), and the Gaussian 82(TM) system (copyright 1983,
 Carnegie Mellon University). Gaussian is a federally registered
 trademark of Gaussian, Inc.
  
 This software contains proprietary and confidential information,
 including trade secrets, belonging to Gaussian, Inc.
  
 This software is provided under written license and may be
 used, copied, transmitted, or stored only in accord with that
 written license.
  
 The following legend is applicable only to US Government
 contracts under FAR:
  
                    RESTRICTED RIGHTS LEGEND
  
 Use, reproduction and disclosure by the US Government is
 subject to restrictions as set forth in subparagraphs (a)
 and (c) of the Commercial Computer Software - Restricted
 Rights clause in FAR 52.227-19.
  
 Gaussian, Inc.
 340 Quinnipiac St., Bldg. 40, Wallingford CT 06492
  
  
 ---------------------------------------------------------------
 Warning -- This program may not be used in any manner that
 competes with the business of Gaussian, Inc. or will provide
 assistance to any competitor of Gaussian, Inc.  The licensee
 of this program is prohibited from giving any competitor of
 Gaussian, Inc. access to this program.  By using this program,
 the user acknowledges that Gaussian, Inc. is engaged in the
 business of creating and licensing software in the field of
 computational chemistry and represents and warrants to the
 licensee that it is not a competitor of Gaussian, Inc. and that
 it will not use this program in any manner prohibited above.
 ---------------------------------------------------------------
  

 Cite this work as:
 Gaussian 16, Revision B.01,
 M. J. Frisch, G. W. Trucks, H. B. Schlegel, G. E. Scuseria, 
 M. A. Robb, J. R. Cheeseman, G. Scalmani, V. Barone, 
 G. A. Petersson, H. Nakatsuji, X. Li, M. Caricato, A. V. Marenich, 
 J. Bloino, B. G. Janesko, R. Gomperts, B. Mennucci, H. P. Hratchian, 
 J. V. Ortiz, A. F. Izmaylov, J. L. Sonnenberg, D. Williams-Young, 
 F. Ding, F. Lipparini, F. Egidi, J. Goings, B. Peng, A. Petrone, 
 T. Henderson, D. Ranasinghe, V. G. Zakrzewski, J. Gao, N. Rega, 
 G. Zheng, W. Liang, M. Hada, M. Ehara, K. Toyota, R. Fukuda, 
 J. Hasegawa, M. Ishida, T. Nakajima, Y. Honda, O. Kitao, H. Nakai, 
 T. Vreven, K. Throssell, J. A. Montgomery, Jr., J. E. Peralta, 
 F. Ogliaro, M. J. Bearpark, J. J. Heyd, E. N. Brothers, K. N. Kudin, 
 V. N. Staroverov, T. A. Keith, R. Kobayashi, J. Normand, 
 K. Raghavachari, A. P. Rendell, J. C. Burant, S. S. Iyengar, 
 J. Tomasi, M. Cossi, J. M. Millam, M. Klene, C. Adamo, R. Cammi, 
 J. W. Ochterski, R. L. Martin, K. Morokuma, O. Farkas, 
 J. B. Foresman, and D. J. Fox, Gaussian, Inc., Wallingford CT, 2016.
 
 ******************************************
 Gaussian 16:  EM64L-G16RevB.01 20-Dec-2017
                15-Mar-2022 
 ******************************************
 %mem=10GB
 %nprocshared=4
 Will use up to    4 processors via shared memory.
 --------------------------------
 # opt b3lyp/6-311+g(d,p) scf=xqc
 --------------------------------
 1/18=20,19=15,26=3,38=1/1,3;
 2/9=110,12=2,17=6,18=5,40=1/2;
 3/5=4,6=6,7=111,11=2,25=1,30=1,71=1,74=-5/1,2,3;
 4//1;
 5/5=2,8=3,13=1,38=5/2,8;
 6/7=2,8=2,9=2,10=2,28=1/1;
 7//1,2,3,16;
 1/18=20,19=15,26=3/3(2);
 2/9=110/2;
 99//99;
 2/9=110/2;
 3/5=4,6=6,7=111,11=2,25=1,30=1,71=1,74=-5/1,2,3;
 4/5=5,16=3,69=1/1;
 5/5=2,8=3,13=1,38=5/2,8;
 7//1,2,3,16;
 1/18=20,19=15,26=3/3(-5);
 2/9=110/2;
 6/7=2,8=2,9=2,10=2,19=2,28=1/1;
 99/9=1/99;
 -------------------
 Title Card Required
 -------------------
 Symbolic Z-matrix:
 Charge =  0 Multiplicity = 1
 C                    -0.22791  -0.4739   -0.00285 
 C                     1.10447  -0.44402  -0.4362 
 C                     1.81236   0.76544  -0.44227 
 C                     1.18788   1.945    -0.015 
 C                    -0.14451   1.91511   0.41835 
 C                    -0.8524    0.70566   0.42442 
 C                    -1.00582  -1.80297   0.00382 
 C                    -0.38133  -2.98253  -0.42345 
 C                    -1.08922  -4.19199  -0.41738 
 C                    -2.4216   -4.22187   0.01597 
 C                    -3.04609  -3.04231   0.44325 
 C                    -2.3382   -1.83286   0.43717 
 H                     1.58128  -1.34464  -0.76243 
 H                     1.72837   2.86844  -0.01963 
 H                    -0.62132   2.81574   0.74458 
 H                     0.63597  -2.95972  -0.75432 
 H                    -0.61241  -5.09261  -0.74361 
 H                    -2.96209  -5.14532   0.02061 
 H                    -2.81501  -0.93223   0.76341 
 Cl                   -2.52572   0.66813   0.96866 
 Cl                    3.48568   0.80297  -0.9865 
 Cl                   -4.71941  -3.07984   0.98749 
 

 GradGradGradGradGradGradGradGradGradGradGradGradGradGradGradGradGradGrad
 Berny optimization.
 Initialization pass.
                           ----------------------------
                           !    Initial Parameters    !
                           ! (Angstroms and Degrees)  !
 --------------------------                            --------------------------
 ! Name  Definition              Value          Derivative Info.                !
 --------------------------------------------------------------------------------
 ! R1    R(1,2)                  1.4014         estimate D2E/DX2                !
 ! R2    R(1,6)                  1.4014         estimate D2E/DX2                !
 ! R3    R(1,7)                  1.54           estimate D2E/DX2                !
 ! R4    R(2,3)                  1.4014         estimate D2E/DX2                !
 ! R5    R(2,13)                 1.07           estimate D2E/DX2                !
 ! R6    R(3,4)                  1.4014         estimate D2E/DX2                !
 ! R7    R(3,21)                 1.76           estimate D2E/DX2                !
 ! R8    R(4,5)                  1.4014         estimate D2E/DX2                !
 ! R9    R(4,14)                 1.07           estimate D2E/DX2                !
 ! R10   R(5,6)                  1.4014         estimate D2E/DX2                !
 ! R11   R(5,15)                 1.07           estimate D2E/DX2                !
 ! R12   R(6,20)                 1.76           estimate D2E/DX2                !
 ! R13   R(7,8)                  1.4014         estimate D2E/DX2                !
 ! R14   R(7,12)                 1.4014         estimate D2E/DX2                !
 ! R15   R(8,9)                  1.4014         estimate D2E/DX2                !
 ! R16   R(8,16)                 1.07           estimate D2E/DX2                !
 ! R17   R(9,10)                 1.4014         estimate D2E/DX2                !
 ! R18   R(9,17)                 1.07           estimate D2E/DX2                !
 ! R19   R(10,11)                1.4014         estimate D2E/DX2                !
 ! R20   R(10,18)                1.07           estimate D2E/DX2                !
 ! R21   R(11,12)                1.4014         estimate D2E/DX2                !
 ! R22   R(11,22)                1.76           estimate D2E/DX2                !
 ! R23   R(12,19)                1.07           estimate D2E/DX2                !
 ! A1    A(2,1,6)              120.0            estimate D2E/DX2                !
 ! A2    A(2,1,7)              120.0            estimate D2E/DX2                !
 ! A3    A(6,1,7)              120.0            estimate D2E/DX2                !
 ! A4    A(1,2,3)              120.0            estimate D2E/DX2                !
 ! A5    A(1,2,13)             120.0            estimate D2E/DX2                !
 ! A6    A(3,2,13)             120.0            estimate D2E/DX2                !
 ! A7    A(2,3,4)              120.0            estimate D2E/DX2                !
 ! A8    A(2,3,21)             120.0            estimate D2E/DX2                !
 ! A9    A(4,3,21)             120.0            estimate D2E/DX2                !
 ! A10   A(3,4,5)              120.0            estimate D2E/DX2                !
 ! A11   A(3,4,14)             120.0            estimate D2E/DX2                !
 ! A12   A(5,4,14)             120.0            estimate D2E/DX2                !
 ! A13   A(4,5,6)              120.0            estimate D2E/DX2                !
 ! A14   A(4,5,15)             120.0            estimate D2E/DX2                !
 ! A15   A(6,5,15)             120.0            estimate D2E/DX2                !
 ! A16   A(1,6,5)              120.0            estimate D2E/DX2                !
 ! A17   A(1,6,20)             120.0            estimate D2E/DX2                !
 ! A18   A(5,6,20)             120.0            estimate D2E/DX2                !
 ! A19   A(1,7,8)              120.0            estimate D2E/DX2                !
 ! A20   A(1,7,12)             120.0            estimate D2E/DX2                !
 ! A21   A(8,7,12)             120.0            estimate D2E/DX2                !
 ! A22   A(7,8,9)              120.0            estimate D2E/DX2                !
 ! A23   A(7,8,16)             120.0            estimate D2E/DX2                !
 ! A24   A(9,8,16)             120.0            estimate D2E/DX2                !
 ! A25   A(8,9,10)             120.0            estimate D2E/DX2                !
 ! A26   A(8,9,17)             120.0            estimate D2E/DX2                !
 ! A27   A(10,9,17)            120.0            estimate D2E/DX2                !
 ! A28   A(9,10,11)            120.0            estimate D2E/DX2                !
 ! A29   A(9,10,18)            120.0            estimate D2E/DX2                !
 ! A30   A(11,10,18)           120.0            estimate D2E/DX2                !
 ! A31   A(10,11,12)           120.0            estimate D2E/DX2                !
 ! A32   A(10,11,22)           120.0            estimate D2E/DX2                !
 ! A33   A(12,11,22)           120.0            estimate D2E/DX2                !
 ! A34   A(7,12,11)            120.0            estimate D2E/DX2                !
 ! A35   A(7,12,19)            120.0            estimate D2E/DX2                !
 ! A36   A(11,12,19)           120.0            estimate D2E/DX2                !
 ! D1    D(6,1,2,3)              0.0001         estimate D2E/DX2                !
 ! D2    D(6,1,2,13)           180.0            estimate D2E/DX2                !
 ! D3    D(7,1,2,3)           -180.0            estimate D2E/DX2                !
 ! D4    D(7,1,2,13)            -0.0001         estimate D2E/DX2                !
 ! D5    D(2,1,6,5)             -0.0001         estimate D2E/DX2                !
 ! D6    D(2,1,6,20)           180.0            estimate D2E/DX2                !
 ! D7    D(7,1,6,5)            180.0            estimate D2E/DX2                !
 ! D8    D(7,1,6,20)             0.0            estimate D2E/DX2                !
 ! D9    D(2,1,7,8)             -0.0001         estimate D2E/DX2                !
 ! D10   D(2,1,7,12)           179.9998         estimate D2E/DX2                !
 ! D11   D(6,1,7,8)            179.9999         estimate D2E/DX2                !
 ! D12   D(6,1,7,12)            -0.0002         estimate D2E/DX2                !
 ! D13   D(1,2,3,4)              0.0            estimate D2E/DX2                !
 ! D14   D(1,2,3,21)           180.0            estimate D2E/DX2                !
 ! D15   D(13,2,3,4)          -179.9999         estimate D2E/DX2                !
 ! D16   D(13,2,3,21)            0.0001         estimate D2E/DX2                !
 ! D17   D(2,3,4,5)             -0.0001         estimate D2E/DX2                !
 ! D18   D(2,3,4,14)           180.0            estimate D2E/DX2                !
 ! D19   D(21,3,4,5)           179.9999         estimate D2E/DX2                !
 ! D20   D(21,3,4,14)            0.0            estimate D2E/DX2                !
 ! D21   D(3,4,5,6)              0.0001         estimate D2E/DX2                !
 ! D22   D(3,4,5,15)          -179.9999         estimate D2E/DX2                !
 ! D23   D(14,4,5,6)          -180.0            estimate D2E/DX2                !
 ! D24   D(14,4,5,15)            0.0            estimate D2E/DX2                !
 ! D25   D(4,5,6,1)              0.0            estimate D2E/DX2                !
 ! D26   D(4,5,6,20)           179.9999         estimate D2E/DX2                !
 ! D27   D(15,5,6,1)           180.0            estimate D2E/DX2                !
 ! D28   D(15,5,6,20)           -0.0001         estimate D2E/DX2                !
 ! D29   D(1,7,8,9)            179.9999         estimate D2E/DX2                !
 ! D30   D(1,7,8,16)             0.0001         estimate D2E/DX2                !
 ! D31   D(12,7,8,9)             0.0001         estimate D2E/DX2                !
 ! D32   D(12,7,8,16)         -179.9998         estimate D2E/DX2                !
 ! D33   D(1,7,12,11)         -179.9999         estimate D2E/DX2                !
 ! D34   D(1,7,12,19)            0.0            estimate D2E/DX2                !
 ! D35   D(8,7,12,11)           -0.0001         estimate D2E/DX2                !
 ! D36   D(8,7,12,19)          179.9999         estimate D2E/DX2                !
 ! D37   D(7,8,9,10)             0.0            estimate D2E/DX2                !
 ! D38   D(7,8,9,17)           180.0            estimate D2E/DX2                !
 ! D39   D(16,8,9,10)          179.9998         estimate D2E/DX2                !
 ! D40   D(16,8,9,17)           -0.0002         estimate D2E/DX2                !
 ! D41   D(8,9,10,11)            0.0            estimate D2E/DX2                !
 ! D42   D(8,9,10,18)         -179.9999         estimate D2E/DX2                !
 ! D43   D(17,9,10,11)         180.0            estimate D2E/DX2                !
 ! D44   D(17,9,10,18)           0.0001         estimate D2E/DX2                !
 ! D45   D(9,10,11,12)           0.0            estimate D2E/DX2                !
 ! D46   D(9,10,11,22)        -179.9998         estimate D2E/DX2                !
 ! D47   D(18,10,11,12)        179.9999         estimate D2E/DX2                !
 ! D48   D(18,10,11,22)          0.0001         estimate D2E/DX2                !
 ! D49   D(10,11,12,7)           0.0            estimate D2E/DX2                !
 ! D50   D(10,11,12,19)       -179.9999         estimate D2E/DX2                !
 ! D51   D(22,11,12,7)         179.9999         estimate D2E/DX2                !
 ! D52   D(22,11,12,19)         -0.0001         estimate D2E/DX2                !
 --------------------------------------------------------------------------------
 Trust Radius=3.00D-01 FncErr=1.00D-07 GrdErr=1.00D-06 EigMax=2.50D+02 EigMin=1.00D-04
 Number of steps in this run=    121 maximum allowed number of steps=    132.
 GradGradGradGradGradGradGradGradGradGradGradGradGradGradGradGradGradGrad

                          Input orientation:                          
 ---------------------------------------------------------------------
 Center     Atomic      Atomic             Coordinates (Angstroms)
 Number     Number       Type             X           Y           Z
 ---------------------------------------------------------------------
      1          6           0       -0.227912   -0.473902   -0.002851
      2          6           0        1.104469   -0.444016   -0.436198
      3          6           0        1.812363    0.765435   -0.442270
      4          6           0        1.187876    1.945000   -0.014995
      5          6           0       -0.144506    1.915115    0.418350
      6          6           0       -0.852400    0.705664    0.424422
      7          6           0       -1.005817   -1.802969    0.003823
      8          6           0       -0.381329   -2.982534   -0.423452
      9          6           0       -1.089222   -4.191985   -0.417378
     10          6           0       -2.421602   -4.221872    0.015972
     11          6           0       -3.046089   -3.042307    0.443247
     12          6           0       -2.338197   -1.832856    0.437173
     13          1           0        1.581280   -1.344640   -0.762430
     14          1           0        1.728368    2.868443   -0.019631
     15          1           0       -0.621317    2.815739    0.744581
     16          1           0        0.635973   -2.959716   -0.754322
     17          1           0       -0.612412   -5.092610   -0.743612
     18          1           0       -2.962094   -5.145315    0.020612
     19          1           0       -2.815006   -0.932232    0.763409
     20         17           0       -2.525720    0.668130    0.968656
     21         17           0        3.485683    0.802968   -0.986504
     22         17           0       -4.719407   -3.079842    0.987490
 ---------------------------------------------------------------------
                    Distance matrix (angstroms):
                    1          2          3          4          5
     1  C    0.000000
     2  C    1.401400   0.000000
     3  C    2.427296   1.401400   0.000000
     4  C    2.802800   2.427296   1.401400   0.000000
     5  C    2.427296   2.802800   2.427296   1.401400   0.000000
     6  C    1.401400   2.427296   2.802800   2.427296   1.401400
     7  C    1.540000   2.548270   3.838989   4.342800   3.838989
     8  C    2.548270   2.941400   4.342800   5.187469   4.975106
     9  C    3.838989   4.342800   5.744200   6.558176   6.235992
    10  C    4.342800   5.187469   6.558176   7.145600   6.558176
    11  C    3.838989   4.975106   6.235992   6.558176   5.744200
    12  C    2.548270   3.813607   4.975106   5.187469   4.342800
    13  H    2.146700   1.070000   2.146700   3.396345   3.872800
    14  H    3.872800   3.396345   2.146700   1.070000   2.146700
    15  H    3.396345   3.872800   3.396345   2.146700   1.070000
    16  H    2.736837   2.578650   3.918930   4.990735   5.074276
    17  H    4.693509   4.965039   6.347206   7.300676   7.118798
    18  H    5.412800   6.232802   7.612271   8.215600   7.612271
    19  H    2.736837   4.127917   5.074276   4.990735   3.918930
    20  Cl   2.743718   4.048303   4.562800   4.048303   2.743718
    21  Cl   4.048303   2.743718   1.760000   2.743718   4.048303
    22  Cl   5.286324   6.549198   7.713260   7.819846   6.797295
                    6          7          8          9         10
     6  C    0.000000
     7  C    2.548270   0.000000
     8  C    3.813607   1.401400   0.000000
     9  C    4.975106   2.427296   1.401400   0.000000
    10  C    5.187469   2.802800   2.427296   1.401400   0.000000
    11  C    4.342800   2.427296   2.802800   2.427296   1.401400
    12  C    2.941400   1.401400   2.427296   2.802800   2.427296
    13  H    3.396345   2.736837   2.578650   3.918930   4.990735
    14  H    3.396345   5.412800   6.232802   7.612271   8.215600
    15  H    2.146700   4.693509   5.919617   7.118798   7.300676
    16  H    4.127917   2.146700   1.070000   2.146700   3.396345
    17  H    5.919617   3.396345   2.146700   1.070000   2.146700
    18  H    6.232802   3.872800   3.396345   2.146700   1.070000
    19  H    2.578650   2.146700   3.396345   3.872800   3.396345
    20  Cl   1.760000   3.057342   4.456874   5.254079   4.983028
    21  Cl   4.562800   5.286324   5.440665   6.797295   7.819846
    22  Cl   5.440665   4.048303   4.562800   4.048303   2.743718
                   11         12         13         14         15
    11  C    0.000000
    12  C    1.401400   0.000000
    13  H    5.074276   4.127917   0.000000
    14  H    7.612271   6.232802   4.280590   0.000000
    15  H    6.347206   4.965039   4.942800   2.471400   0.000000
    16  H    3.872800   3.396345   1.871400   5.974992   6.097816
    17  H    3.396345   3.872800   4.342800   8.329571   8.047159
    18  H    2.146700   3.396345   5.974992   9.285600   8.329571
    19  H    2.146700   1.070000   4.671787   5.974992   4.342800
    20  Cl   3.783409   2.563702   4.890332   4.890332   2.879094
    21  Cl   7.713260   6.549198   2.879094   2.879094   4.890332
    22  Cl   1.760000   2.743718   6.765486   8.830073   7.184095
                   16         17         18         19         20
    16  H    0.000000
    17  H    2.471400   0.000000
    18  H    4.280590   2.471400   0.000000
    19  H    4.280590   4.942800   4.280590   0.000000
    20  Cl   5.111382   6.307038   5.906383   1.639199   0.000000
    21  Cl   4.725732   7.184095   8.830073   6.765486   6.322800
    22  Cl   5.632800   4.890332   2.879094   2.879094   4.342800
                   21         22
    21  Cl   0.000000
    22  Cl   9.289584   0.000000
 Stoichiometry    C12H7Cl3
 Framework group  C1[X(C12H7Cl3)]
 Deg. of freedom    60
 Full point group                 C1      NOp   1
 Largest Abelian subgroup         C1      NOp   1
 Largest concise Abelian subgroup C1      NOp   1
                         Standard orientation:                         
 ---------------------------------------------------------------------
 Center     Atomic      Atomic             Coordinates (Angstroms)
 Number     Number       Type             X           Y           Z
 ---------------------------------------------------------------------
      1          6           0       -0.778824   -0.005654    0.000002
      2          6           0       -1.935077   -0.797488    0.000001
      3          6           0       -3.198952   -0.192061   -0.000001
      4          6           0       -3.306574    1.205201   -0.000003
      5          6           0       -2.150321    1.997035    0.000000
      6          6           0       -0.886446    1.391608    0.000002
      7          6           0        0.610050   -0.670958    0.000003
      8          6           0        0.717672   -2.068220    0.000005
      9          6           0        1.981547   -2.673647    0.000004
     10          6           0        3.137800   -1.881812    0.000002
     11          6           0        3.030177   -0.484551    0.000000
     12          6           0        1.766303    0.120876    0.000000
     13          1           0       -1.852905   -1.864328   -0.000000
     14          1           0       -4.271570    1.667458   -0.000005
     15          1           0       -2.232493    3.063875    0.000002
     16          1           0       -0.165153   -2.672803    0.000004
     17          1           0        2.063719   -3.740487    0.000006
     18          1           0        4.102796   -2.344070    0.000000
     19          1           0        1.684131    1.187716   -0.000003
     20         17           0        0.565677    2.386062    0.000005
     21         17           0       -4.651074   -1.186515   -0.000004
     22         17           0        4.482300    0.509903   -0.000007
 ---------------------------------------------------------------------
 Rotational constants (GHZ):           0.8636438           0.2279974           0.1803784
 Standard basis: 6-311+G(d,p) (5D, 7F)
 There are   411 symmetry adapted cartesian basis functions of A   symmetry.
 There are   396 symmetry adapted basis functions of A   symmetry.
   396 basis functions,   647 primitive gaussians,   411 cartesian basis functions
    65 alpha electrons       65 beta electrons
       nuclear repulsion energy      1189.1164453452 Hartrees.
 NAtoms=   22 NActive=   22 NUniq=   22 SFac= 1.00D+00 NAtFMM=   60 NAOKFM=F Big=F
 Integral buffers will be    131072 words long.
 Raffenetti 2 integral format.
 Two-electron integral symmetry is turned on.
 One-electron integrals computed using PRISM.
 NBasis=   396 RedAO= T EigKep=  1.07D-06  NBF=   396
 NBsUse=   392 1.00D-06 EigRej=  5.71D-07 NBFU=   392
 ExpMin= 4.38D-02 ExpMax= 1.06D+05 ExpMxC= 3.62D+03 IAcc=3 IRadAn=         5 AccDes= 0.00D+00
 Harris functional with IExCor=  402 and IRadAn=       5 diagonalized for initial guess.
 HarFok:  IExCor=  402 AccDes= 0.00D+00 IRadAn=         5 IDoV= 1 UseB2=F ITyADJ=14
 ICtDFT=  3500011 ScaDFX=  1.000000  1.000000  1.000000  1.000000
 FoFCou: FMM=F IPFlag=           0 FMFlag=      100000 FMFlg1=           0
         NFxFlg=           0 DoJE=T BraDBF=F KetDBF=T FulRan=T
         wScrn=  0.000000 ICntrl=       500 IOpCl=  0 I1Cent=   200000004 NGrid=           0
         NMat0=    1 NMatS0=      1 NMatT0=    0 NMatD0=    1 NMtDS0=    0 NMtDT0=    0
 Petite list used in FoFCou.
 Requested convergence on RMS density matrix=1.00D-08 within  32 cycles.
 Requested convergence on MAX density matrix=1.00D-06.
 Requested convergence on             energy=1.00D-06.
 No special actions if energy rises.
 SCF Done:  E(RB3LYP) =  -1842.22465644     A.U. after   16 cycles
            NFock= 16  Conv=0.48D-08     -V/T= 2.0028
 QCSCF skips out because SCF is already converged.

 **********************************************************************

            Population analysis using the SCF Density.

 **********************************************************************

 Orbital symmetries:
       Occupied  (A) (A) (A) (A) (A) (A) (A) (A) (A) (A) (A) (A)
                 (A) (A) (A) (A) (A) (A) (A) (A) (A) (A) (A) (A)
                 (A) (A) (A) (A) (A) (A) (A) (A) (A) (A) (A) (A)
                 (A) (A) (A) (A) (A) (A) (A) (A) (A) (A) (A) (A)
                 (A) (A) (A) (A) (A) (A) (A) (A) (A) (A) (A) (A)
                 (A) (A) (A) (A) (A)
       Virtual   (A) (A) (A) (A) (A) (A) (A) (A) (A) (A) (A) (A)
                 (A) (A) (A) (A) (A) (A) (A) (A) (A) (A) (A) (A)
                 (A) (A) (A) (A) (A) (A) (A) (A) (A) (A) (A) (A)
                 (A) (A) (A) (A) (A) (A) (A) (A) (A) (A) (A) (A)
                 (A) (A) (A) (A) (A) (A) (A) (A) (A) (A) (A) (A)
                 (A) (A) (A) (A) (A) (A) (A) (A) (A) (A) (A) (A)
                 (A) (A) (A) (A) (A) (A) (A) (A) (A) (A) (A) (A)
                 (A) (A) (A) (A) (A) (A) (A) (A) (A) (A) (A) (A)
                 (A) (A) (A) (A) (A) (A) (A) (A) (A) (A) (A) (A)
                 (A) (A) (A) (A) (A) (A) (A) (A) (A) (A) (A) (A)
                 (A) (A) (A) (A) (A) (A) (A) (A) (A) (A) (A) (A)
                 (A) (A) (A) (A) (A) (A) (A) (A) (A) (A) (A) (A)
                 (A) (A) (A) (A) (A) (A) (A) (A) (A) (A) (A) (A)
                 (A) (A) (A) (A) (A) (A) (A) (A) (A) (A) (A) (A)
                 (A) (A) (A) (A) (A) (A) (A) (A) (A) (A) (A) (A)
                 (A) (A) (A) (A) (A) (A) (A) (A) (A) (A) (A) (A)
                 (A) (A) (A) (A) (A) (A) (A) (A) (A) (A) (A) (A)
                 (A) (A) (A) (A) (A) (A) (A) (A) (A) (A) (A) (A)
                 (A) (A) (A) (A) (A) (A) (A) (A) (A) (A) (A) (A)
                 (A) (A) (A) (A) (A) (A) (A) (A) (A) (A) (A) (A)
                 (A) (A) (A) (A) (A) (A) (A) (A) (A) (A) (A) (A)
                 (A) (A) (A) (A) (A) (A) (A) (A) (A) (A) (A) (A)
                 (A) (A) (A) (A) (A) (A) (A) (A) (A) (A) (A) (A)
                 (A) (A) (A) (A) (A) (A) (A) (A) (A) (A) (A) (A)
                 (A) (A) (A) (A) (A) (A) (A) (A) (A) (A) (A) (A)
                 (A) (A) (A) (A) (A) (A) (A) (A) (A) (A) (A) (A)
                 (A) (A) (A) (A) (A) (A) (A) (A) (A) (A) (A) (A)
                 (A) (A) (A)
 The electronic state is 1-A.
 Alpha  occ. eigenvalues -- -101.57370-101.57072-101.55787 -10.26429 -10.26327
 Alpha  occ. eigenvalues --  -10.24509 -10.22946 -10.21567 -10.21364 -10.21226
 Alpha  occ. eigenvalues --  -10.21189 -10.19599 -10.19499 -10.19367 -10.17492
 Alpha  occ. eigenvalues --   -9.49158  -9.48506  -9.47235  -7.25556  -7.24976
 Alpha  occ. eigenvalues --   -7.24610  -7.24597  -7.23986  -7.23953  -7.23690
 Alpha  occ. eigenvalues --   -7.22721  -7.22689  -0.93278  -0.90245  -0.89369
 Alpha  occ. eigenvalues --   -0.85432  -0.84352  -0.80049  -0.76113  -0.75057
 Alpha  occ. eigenvalues --   -0.74053  -0.66088  -0.64039  -0.61881  -0.59972
 Alpha  occ. eigenvalues --   -0.54468  -0.53833  -0.51512  -0.49694  -0.48296
 Alpha  occ. eigenvalues --   -0.47094  -0.46001  -0.45151  -0.44797  -0.43682
 Alpha  occ. eigenvalues --   -0.40864  -0.40321  -0.40244  -0.38972  -0.38701
 Alpha  occ. eigenvalues --   -0.37622  -0.35164  -0.33624  -0.33314  -0.32113
 Alpha  occ. eigenvalues --   -0.30550  -0.28565  -0.26888  -0.26146  -0.24960
 Alpha virt. eigenvalues --   -0.06839  -0.05235  -0.02939  -0.01504  -0.00561
 Alpha virt. eigenvalues --   -0.00431   0.00016   0.00552   0.01192   0.01833
 Alpha virt. eigenvalues --    0.02920   0.03494   0.04369   0.04372   0.05143
 Alpha virt. eigenvalues --    0.05937   0.05987   0.06289   0.06953   0.07793
 Alpha virt. eigenvalues --    0.08127   0.08378   0.08799   0.09133   0.10381
 Alpha virt. eigenvalues --    0.10408   0.10890   0.11720   0.11764   0.12031
 Alpha virt. eigenvalues --    0.12318   0.12739   0.13304   0.13775   0.14324
 Alpha virt. eigenvalues --    0.14652   0.14665   0.14916   0.15880   0.16169
 Alpha virt. eigenvalues --    0.16346   0.16827   0.17667   0.17937   0.17975
 Alpha virt. eigenvalues --    0.18126   0.18869   0.19246   0.19749   0.19991
 Alpha virt. eigenvalues --    0.20250   0.21121   0.21368   0.21643   0.21866
 Alpha virt. eigenvalues --    0.22247   0.22524   0.23341   0.23578   0.23639
 Alpha virt. eigenvalues --    0.24394   0.25144   0.25305   0.25782   0.26417
 Alpha virt. eigenvalues --    0.27593   0.28064   0.28357   0.29482   0.29916
 Alpha virt. eigenvalues --    0.30346   0.30948   0.31525   0.32662   0.33215
 Alpha virt. eigenvalues --    0.33506   0.35177   0.35748   0.36515   0.36947
 Alpha virt. eigenvalues --    0.38088   0.40891   0.42905   0.43801   0.43883
 Alpha virt. eigenvalues --    0.44697   0.45264   0.45703   0.46297   0.47056
 Alpha virt. eigenvalues --    0.47661   0.50647   0.50949   0.51796   0.52210
 Alpha virt. eigenvalues --    0.52756   0.53208   0.53604   0.54081   0.54734
 Alpha virt. eigenvalues --    0.55637   0.56231   0.57594   0.57973   0.58267
 Alpha virt. eigenvalues --    0.58484   0.59357   0.61242   0.61455   0.61897
 Alpha virt. eigenvalues --    0.62868   0.64165   0.65242   0.65586   0.65819
 Alpha virt. eigenvalues --    0.67555   0.67710   0.68852   0.68927   0.69846
 Alpha virt. eigenvalues --    0.70213   0.72871   0.74221   0.76178   0.79483
 Alpha virt. eigenvalues --    0.79769   0.80941   0.81751   0.82548   0.82749
 Alpha virt. eigenvalues --    0.82790   0.84226   0.84534   0.85238   0.85592
 Alpha virt. eigenvalues --    0.86260   0.86317   0.86850   0.87422   0.88269
 Alpha virt. eigenvalues --    0.88404   0.89261   0.90167   0.90996   0.91881
 Alpha virt. eigenvalues --    0.92146   0.94538   0.94851   0.95841   0.95972
 Alpha virt. eigenvalues --    0.97277   0.98051   0.98376   0.99348   1.00069
 Alpha virt. eigenvalues --    1.00278   1.02050   1.02919   1.04768   1.05577
 Alpha virt. eigenvalues --    1.08179   1.08527   1.09971   1.10183   1.12914
 Alpha virt. eigenvalues --    1.13012   1.14901   1.19807   1.22184   1.22769
 Alpha virt. eigenvalues --    1.24945   1.26240   1.27400   1.27612   1.28467
 Alpha virt. eigenvalues --    1.30857   1.33757   1.35840   1.37908   1.44596
 Alpha virt. eigenvalues --    1.45360   1.47623   1.49025   1.50709   1.51516
 Alpha virt. eigenvalues --    1.53860   1.55268   1.56709   1.58133   1.59088
 Alpha virt. eigenvalues --    1.59844   1.60930   1.61691   1.64599   1.65942
 Alpha virt. eigenvalues --    1.66469   1.69430   1.71854   1.73108   1.73127
 Alpha virt. eigenvalues --    1.75415   1.78268   1.83520   1.83923   1.84952
 Alpha virt. eigenvalues --    1.86133   1.86329   1.87896   1.90215   1.91797
 Alpha virt. eigenvalues --    1.92175   1.94027   1.94787   1.95453   1.96811
 Alpha virt. eigenvalues --    1.98977   2.00299   2.00352   2.01801   2.03257
 Alpha virt. eigenvalues --    2.04365   2.07741   2.08291   2.11349   2.14800
 Alpha virt. eigenvalues --    2.20060   2.22456   2.24249   2.25955   2.26555
 Alpha virt. eigenvalues --    2.27950   2.28098   2.32235   2.33801   2.34132
 Alpha virt. eigenvalues --    2.35829   2.37732   2.40610   2.40992   2.43250
 Alpha virt. eigenvalues --    2.45773   2.49584   2.52126   2.53864   2.55636
 Alpha virt. eigenvalues --    2.56175   2.61052   2.61318   2.64263   2.64459
 Alpha virt. eigenvalues --    2.68052   2.68370   2.69793   2.70022   2.72361
 Alpha virt. eigenvalues --    2.73685   2.74300   2.74424   2.75494   2.75688
 Alpha virt. eigenvalues --    2.78242   2.79036   2.80423   2.81435   2.84048
 Alpha virt. eigenvalues --    2.84068   2.85267   2.85926   2.91615   2.93713
 Alpha virt. eigenvalues --    2.98219   3.05219   3.07004   3.08570   3.09450
 Alpha virt. eigenvalues --    3.15012   3.15720   3.20068   3.23054   3.26305
 Alpha virt. eigenvalues --    3.31875   3.35168   3.38476   3.40541   3.51845
 Alpha virt. eigenvalues --    3.52865   3.56765   3.61650   3.67331   3.76727
 Alpha virt. eigenvalues --    3.79913   3.88109   4.03087   4.04976   4.11395
 Alpha virt. eigenvalues --    4.16707   4.20669   4.47291   4.79835   4.83834
 Alpha virt. eigenvalues --    9.76843   9.78205   9.87860  23.44529  23.60672
 Alpha virt. eigenvalues --   23.82924  23.88199  23.91071  23.94759  23.97817
 Alpha virt. eigenvalues --   24.03807  24.03892  24.06954  24.10719  24.14941
 Alpha virt. eigenvalues --   25.80637  25.82273  25.85368  26.12568  26.14368
 Alpha virt. eigenvalues --   26.59859  26.60856  26.66321  26.80093 215.75974
 Alpha virt. eigenvalues --  215.77418 215.90282
          Condensed to atoms (all electrons):
               1          2          3          4          5          6
     1  C   16.694888  -0.719259  -2.179506  -0.536661   0.043671  -6.675768
     2  C   -0.719259  15.574899  -0.027007  -2.776172  -1.084390  -1.773612
     3  C   -2.179506  -0.027007  16.775808  -5.531515   0.767890  -0.660505
     4  C   -0.536661  -2.776172  -5.531515  15.368966   0.666483  -1.015455
     5  C    0.043671  -1.084390   0.767890   0.666483  16.983862  -8.409271
     6  C   -6.675768  -1.773612  -0.660505  -1.015455  -8.409271  26.044687
     7  C    4.926533  -2.556212  -1.325324  -0.243674  -3.215282  -0.661761
     8  C    0.597176   4.326746  -1.589880   0.242174  -0.742613  -5.837960
     9  C   -0.223868  -1.066263   0.528585   0.152421  -0.170801  -0.554149
    10  C   -0.670613   0.525826  -0.317610   0.056955   0.264498   0.167953
    11  C   -1.573717  -1.623909  -0.083068  -0.057461   1.684466   0.862649
    12  C   -2.906610  -3.395065  -0.573786   0.418194  -0.219763   4.614481
    13  H    0.060812   0.238639  -0.134815   0.092812  -0.016790  -0.068623
    14  H    0.046457   0.010514   0.022224   0.317454  -0.029312  -0.022418
    15  H    0.063146  -0.032352  -0.048507  -0.016371   0.374868   0.013727
    16  H    0.055789  -0.002838   0.002448  -0.012609   0.008541   0.026213
    17  H   -0.001945   0.008703  -0.000461   0.000079   0.000423  -0.001211
    18  H    0.009429   0.003606   0.000603  -0.000033  -0.000166  -0.001805
    19  H   -0.001201   0.002818  -0.000048   0.020878   0.202088   0.018277
    20  Cl  -0.137219   0.669634  -0.001090  -0.053465  -1.030427  -0.278469
    21  Cl  -0.366914   0.375448  -0.441929  -0.395357   0.345646  -0.015854
    22  Cl  -0.166939  -0.106486  -0.001790  -0.004160  -0.000748   0.005820
               7          8          9         10         11         12
     1  C    4.926533   0.597176  -0.223868  -0.670613  -1.573717  -2.906610
     2  C   -2.556212   4.326746  -1.066263   0.525826  -1.623909  -3.395065
     3  C   -1.325324  -1.589880   0.528585  -0.317610  -0.083068  -0.573786
     4  C   -0.243674   0.242174   0.152421   0.056955  -0.057461   0.418194
     5  C   -3.215282  -0.742613  -0.170801   0.264498   1.684466  -0.219763
     6  C   -0.661761  -5.837960  -0.554149   0.167953   0.862649   4.614481
     7  C   17.421090  -4.039279   0.175798  -3.802922  -1.735941   1.175246
     8  C   -4.039279  21.225204  -2.533641   3.566359  -3.919790  -5.555134
     9  C    0.175798  -2.533641  10.190853  -0.139445  -0.664048   0.280481
    10  C   -3.802922   3.566359  -0.139445  17.796873  -6.040829  -5.173893
    11  C   -1.735941  -3.919790  -0.664048  -6.040829  18.726992   0.833245
    12  C    1.175246  -5.555134   0.280481  -5.173893   0.833245  17.628915
    13  H    0.049862   0.070553   0.041309  -0.001322  -0.002045   0.010129
    14  H    0.003195   0.002360   0.000141  -0.000007   0.000101  -0.000859
    15  H    0.006006  -0.001650   0.000419  -0.000175  -0.001446   0.006557
    16  H    0.075403   0.266080  -0.085772  -0.019842   0.011734  -0.005167
    17  H    0.010536  -0.018698   0.378697   0.035161  -0.033251  -0.028507
    18  H    0.064768  -0.052744  -0.045422   0.258629   0.067454   0.047454
    19  H   -0.248034  -0.019937  -0.035217   0.138127   0.170000   0.205990
    20  Cl   0.535852   0.420808  -0.041272   0.124987  -0.935966  -0.793264
    21  Cl  -0.135833  -0.087569  -0.003426  -0.006143   0.004586  -0.048638
    22  Cl  -0.283200  -0.075169   0.283425  -0.377714  -0.699686   0.682472
              13         14         15         16         17         18
     1  C    0.060812   0.046457   0.063146   0.055789  -0.001945   0.009429
     2  C    0.238639   0.010514  -0.032352  -0.002838   0.008703   0.003606
     3  C   -0.134815   0.022224  -0.048507   0.002448  -0.000461   0.000603
     4  C    0.092812   0.317454  -0.016371  -0.012609   0.000079  -0.000033
     5  C   -0.016790  -0.029312   0.374868   0.008541   0.000423  -0.000166
     6  C   -0.068623  -0.022418   0.013727   0.026213  -0.001211  -0.001805
     7  C    0.049862   0.003195   0.006006   0.075403   0.010536   0.064768
     8  C    0.070553   0.002360  -0.001650   0.266080  -0.018698  -0.052744
     9  C    0.041309   0.000141   0.000419  -0.085772   0.378697  -0.045422
    10  C   -0.001322  -0.000007  -0.000175  -0.019842   0.035161   0.258629
    11  C   -0.002045   0.000101  -0.001446   0.011734  -0.033251   0.067454
    12  C    0.010129  -0.000859   0.006557  -0.005167  -0.028507   0.047454
    13  H    0.532111  -0.000340   0.000069   0.003282  -0.000013  -0.000002
    14  H   -0.000340   0.506391  -0.007580   0.000001  -0.000000  -0.000000
    15  H    0.000069  -0.007580   0.506506   0.000001   0.000000  -0.000000
    16  H    0.003282   0.000001   0.000001   0.563458  -0.007107  -0.000226
    17  H   -0.000013  -0.000000   0.000000  -0.007107   0.532284  -0.007691
    18  H   -0.000002  -0.000000  -0.000000  -0.000226  -0.007691   0.519733
    19  H   -0.000090  -0.000004   0.000012  -0.000116   0.000129  -0.000587
    20  Cl  -0.000406   0.002104  -0.017944  -0.000430  -0.000109   0.000426
    21  Cl  -0.021999  -0.004100   0.000100   0.000094   0.000015   0.000001
    22  Cl   0.000104   0.000001   0.000006   0.000209  -0.000303  -0.006945
              19         20         21         22
     1  C   -0.001201  -0.137219  -0.366914  -0.166939
     2  C    0.002818   0.669634   0.375448  -0.106486
     3  C   -0.000048  -0.001090  -0.441929  -0.001790
     4  C    0.020878  -0.053465  -0.395357  -0.004160
     5  C    0.202088  -1.030427   0.345646  -0.000748
     6  C    0.018277  -0.278469  -0.015854   0.005820
     7  C   -0.248034   0.535852  -0.135833  -0.283200
     8  C   -0.019937   0.420808  -0.087569  -0.075169
     9  C   -0.035217  -0.041272  -0.003426   0.283425
    10  C    0.138127   0.124987  -0.006143  -0.377714
    11  C    0.170000  -0.935966   0.004586  -0.699686
    12  C    0.205990  -0.793264  -0.048638   0.682472
    13  H   -0.000090  -0.000406  -0.021999   0.000104
    14  H   -0.000004   0.002104  -0.004100   0.000001
    15  H    0.000012  -0.017944   0.000100   0.000006
    16  H   -0.000116  -0.000430   0.000094   0.000209
    17  H    0.000129  -0.000109   0.000015  -0.000303
    18  H   -0.000587   0.000426   0.000001  -0.006945
    19  H    0.682639  -0.249073   0.000193  -0.032943
    20  Cl  -0.249073  18.195433  -0.004773  -0.067289
    21  Cl   0.000193  -0.004773  17.382616  -0.000121
    22  Cl  -0.032943  -0.067289  -0.000121  17.464758
 Mulliken charges:
               1
     1  C   -0.337681
     2  C   -0.573270
     3  C    0.819285
     4  C   -0.693483
     5  C   -0.422872
     6  C    0.223055
     7  C   -0.196827
     8  C   -0.243395
     9  C   -0.468805
    10  C   -0.384854
    11  C    1.009931
    12  C   -1.202478
    13  H    0.146761
    14  H    0.153678
    15  H    0.154607
    16  H    0.120854
    17  H    0.133271
    18  H    0.143518
    19  H    0.146098
    20  Cl   0.661951
    21  Cl   0.423956
    22  Cl   0.386699
 Sum of Mulliken charges =  -0.00000
 Mulliken charges with hydrogens summed into heavy atoms:
               1
     1  C   -0.337681
     2  C   -0.426508
     3  C    0.819285
     4  C   -0.539804
     5  C   -0.268265
     6  C    0.223055
     7  C   -0.196827
     8  C   -0.122541
     9  C   -0.335534
    10  C   -0.241336
    11  C    1.009931
    12  C   -1.056380
    20  Cl   0.661951
    21  Cl   0.423956
    22  Cl   0.386699
 Electronic spatial extent (au):  <R**2>=           5324.9489
 Charge=             -0.0000 electrons
 Dipole moment (field-independent basis, Debye):
    X=             -1.3713    Y=             -0.5045    Z=             -0.0000  Tot=              1.4612
 Quadrupole moment (field-independent basis, Debye-Ang):
   XX=           -112.9133   YY=            -97.8126   ZZ=           -112.6367
   XY=             -8.2376   XZ=              0.0000   YZ=             -0.0000
 Traceless Quadrupole moment (field-independent basis, Debye-Ang):
   XX=             -5.1258   YY=              9.9749   ZZ=             -4.8491
   XY=             -8.2376   XZ=              0.0000   YZ=             -0.0000
 Octapole moment (field-independent basis, Debye-Ang**2):
  XXX=             -9.4243  YYY=             -6.6222  ZZZ=             -0.0001  XYY=              1.3990
  XXY=             12.6293  XXZ=             -0.0000  XZZ=              0.4319  YZZ=              6.0054
  YYZ=              0.0000  XYZ=             -0.0000
 Hexadecapole moment (field-independent basis, Debye-Ang**3):
 XXXX=          -5493.1021 YYYY=          -1499.7773 ZZZZ=           -132.5310 XXXY=            -71.9397
 XXXZ=              0.0000 YYYX=            -16.2603 YYYZ=             -0.0000 ZZZX=             -0.0001
 ZZZY=              0.0001 XXYY=          -1064.7411 XXZZ=           -963.5699 YYZZ=           -311.2237
 XXYZ=             -0.0001 YYXZ=              0.0000 ZZXY=             26.4622
 N-N= 1.189116445345D+03 E-N=-6.730135871083D+03  KE= 1.837133886253D+03
 Calling FoFJK, ICntrl=      2127 FMM=F ISym2X=0 I1Cent= 0 IOpClX= 0 NMat=1 NMatS=1 NMatT=0.
 ***** Axes restored to original set *****
 -------------------------------------------------------------------
 Center     Atomic                   Forces (Hartrees/Bohr)
 Number     Number              X              Y              Z
 -------------------------------------------------------------------
      1        6          -0.023336517   -0.031237619    0.001821520
      2        6           0.001815319    0.021546327    0.003448644
      3        6          -0.012402077   -0.004196958    0.003297820
      4        6          -0.006449274   -0.011205760    0.000019966
      5        6           0.004216798   -0.013205432   -0.003869291
      6        6           0.015393663    0.003956255   -0.004328437
      7        6           0.015463513    0.019734886   -0.001388014
      8        6          -0.015625482   -0.008377147    0.003574677
      9        6          -0.005385729    0.020473452    0.005619409
     10        6           0.000425394    0.007554057    0.001278595
     11        6           0.022630789   -0.003547426   -0.008121953
     12        6          -0.009150343   -0.051628634   -0.006681582
     13        1           0.004625485   -0.003631467   -0.002205963
     14        1           0.003998239    0.007717999    0.000132278
     15        1          -0.003916806    0.007480402    0.002695348
     16        1           0.006539238   -0.003613060   -0.002833074
     17        1           0.003498571   -0.008240904   -0.002700310
     18        1          -0.004931677   -0.008291709    0.000067464
     19        1          -0.004205024   -0.047957795   -0.007621304
     20       17           0.008613456    0.106352319    0.017135728
     21       17          -0.003876537   -0.000090543    0.001260137
     22       17           0.002058999    0.000408757   -0.000601660
 -------------------------------------------------------------------
 Cartesian Forces:  Max     0.106352319 RMS     0.018350799

 GradGradGradGradGradGradGradGradGradGradGradGradGradGradGradGradGradGrad
 Berny optimization.
 FormGI is forming the generalized inverse of G from B-inverse, IUseBI=4.
 Internal  Forces:  Max     0.277880322 RMS     0.050474342
 Search for a local minimum.
 Step number   1 out of a maximum of  121
 All quantities printed in internal units (Hartrees-Bohrs-Radians)
 Mixed Optimization -- RFO/linear search
 Second derivative matrix not updated -- first step.
 ITU=  0
     Eigenvalues ---    0.00237   0.01506   0.01506   0.02070   0.02070
     Eigenvalues ---    0.02070   0.02070   0.02070   0.02070   0.02070
     Eigenvalues ---    0.02070   0.02070   0.02070   0.02070   0.02070
     Eigenvalues ---    0.02070   0.02070   0.02070   0.02070   0.16000
     Eigenvalues ---    0.16000   0.16000   0.16000   0.16000   0.16000
     Eigenvalues ---    0.16000   0.22000   0.22375   0.23478   0.23491
     Eigenvalues ---    0.23493   0.24610   0.25000   0.25000   0.25000
     Eigenvalues ---    0.25000   0.25000   0.28519   0.29539   0.29539
     Eigenvalues ---    0.29539   0.37230   0.37230   0.37230   0.37230
     Eigenvalues ---    0.37230   0.37230   0.37230   0.41364   0.41393
     Eigenvalues ---    0.41554   0.41697   0.45389   0.45389   0.45389
     Eigenvalues ---    0.45389   0.45389   0.45389   0.45389   0.45389
 RFO step:  Lambda=-4.16937967D-01 EMin= 2.36824176D-03
 Linear search not attempted -- first point.
 Maximum step size (   0.300) exceeded in Quadratic search.
    -- Step size scaled by   0.382
 Iteration  1 RMS(Cart)=  0.19731935 RMS(Int)=  0.00992847
 Iteration  2 RMS(Cart)=  0.03556535 RMS(Int)=  0.00029814
 Iteration  3 RMS(Cart)=  0.00055456 RMS(Int)=  0.00004451
 Iteration  4 RMS(Cart)=  0.00000018 RMS(Int)=  0.00004451
 Variable       Old X    -DE/DX   Delta X   Delta X   Delta X     New X
                                 (Linear)    (Quad)   (Total)
    R1        2.64826   0.01827   0.00000   0.00866   0.00876   2.65702
    R2        2.64826   0.12042   0.00000   0.05403   0.05410   2.70236
    R3        2.91018   0.06625   0.00000   0.03603   0.03603   2.94621
    R4        2.64826  -0.02429   0.00000  -0.01123  -0.01120   2.63706
    R5        2.02201   0.00579   0.00000   0.00280   0.00280   2.02481
    R6        2.64826  -0.04147   0.00000  -0.01941  -0.01948   2.62878
    R7        3.32592  -0.00408   0.00000  -0.00219  -0.00219   3.32373
    R8        2.64826  -0.03158   0.00000  -0.01449  -0.01459   2.63367
    R9        2.02201   0.00868   0.00000   0.00420   0.00420   2.02621
   R10        2.64826   0.00332   0.00000   0.00203   0.00200   2.65026
   R11        2.02201   0.00886   0.00000   0.00429   0.00429   2.02630
   R12        3.32592  -0.00516   0.00000  -0.00277  -0.00277   3.32315
   R13        2.64826   0.01745   0.00000   0.00786   0.00790   2.65617
   R14        2.64826   0.01521   0.00000   0.00699   0.00703   2.65529
   R15        2.64826  -0.01214   0.00000  -0.00543  -0.00543   2.64283
   R16        2.02201   0.00702   0.00000   0.00339   0.00339   2.02540
   R17        2.64826  -0.02620   0.00000  -0.01181  -0.01185   2.63641
   R18        2.02201   0.00932   0.00000   0.00451   0.00451   2.02652
   R19        2.64826  -0.02545   0.00000  -0.01138  -0.01142   2.63685
   R20        2.02201   0.00965   0.00000   0.00467   0.00467   2.02668
   R21        2.64826  -0.00433   0.00000  -0.00179  -0.00179   2.64647
   R22        3.32592  -0.00215   0.00000  -0.00115  -0.00115   3.32476
   R23        2.02201  -0.04082   0.00000  -0.01975  -0.01975   2.00226
    A1        2.09440  -0.07664   0.00000  -0.04175  -0.04157   2.05283
    A2        2.09440  -0.20124   0.00000  -0.11630  -0.11639   1.97801
    A3        2.09440   0.27788   0.00000   0.15805   0.15796   2.25235
    A4        2.09440   0.05471   0.00000   0.03254   0.03266   2.12706
    A5        2.09440  -0.02489   0.00000  -0.01464  -0.01470   2.07969
    A6        2.09440  -0.02981   0.00000  -0.01790  -0.01796   2.07643
    A7        2.09440   0.00682   0.00000   0.00117   0.00112   2.09552
    A8        2.09440  -0.00342   0.00000  -0.00059  -0.00056   2.09383
    A9        2.09440  -0.00341   0.00000  -0.00058  -0.00056   2.09384
   A10        2.09440  -0.00996   0.00000  -0.00893  -0.00911   2.08528
   A11        2.09440   0.00546   0.00000   0.00479   0.00488   2.09927
   A12        2.09440   0.00449   0.00000   0.00415   0.00424   2.09863
   A13        2.09440   0.03904   0.00000   0.02294   0.02281   2.11721
   A14        2.09440  -0.01956   0.00000  -0.01150  -0.01143   2.08296
   A15        2.09440  -0.01948   0.00000  -0.01144  -0.01138   2.08302
   A16        2.09440  -0.01398   0.00000  -0.00597  -0.00592   2.08848
   A17        2.09440   0.18649   0.00000   0.10577   0.10574   2.20014
   A18        2.09440  -0.17252   0.00000  -0.09980  -0.09983   1.99457
   A19        2.09440  -0.12884   0.00000  -0.07405  -0.07409   2.02031
   A20        2.09440   0.18862   0.00000   0.10773   0.10769   2.20208
   A21        2.09440  -0.05978   0.00000  -0.03368  -0.03360   2.06079
   A22        2.09440   0.03655   0.00000   0.02189   0.02193   2.11632
   A23        2.09440  -0.01441   0.00000  -0.00839  -0.00841   2.08599
   A24        2.09440  -0.02214   0.00000  -0.01350  -0.01352   2.08087
   A25        2.09440   0.00357   0.00000   0.00137   0.00133   2.09572
   A26        2.09440  -0.00100   0.00000  -0.00016  -0.00014   2.09425
   A27        2.09440  -0.00257   0.00000  -0.00120  -0.00118   2.09321
   A28        2.09440  -0.01737   0.00000  -0.01134  -0.01142   2.08298
   A29        2.09440   0.00876   0.00000   0.00572   0.00576   2.10015
   A30        2.09440   0.00861   0.00000   0.00562   0.00566   2.10006
   A31        2.09440   0.02017   0.00000   0.01124   0.01120   2.10559
   A32        2.09440  -0.00947   0.00000  -0.00527  -0.00525   2.08915
   A33        2.09440  -0.01070   0.00000  -0.00597  -0.00595   2.08844
   A34        2.09440   0.01686   0.00000   0.01053   0.01057   2.10496
   A35        2.09440   0.01851   0.00000   0.01257   0.01254   2.10694
   A36        2.09440  -0.03536   0.00000  -0.02309  -0.02311   2.07128
    D1        0.00000   0.00000   0.00000   0.00000   0.00000   0.00000
    D2        3.14159   0.00000   0.00000   0.00000   0.00000   3.14159
    D3       -3.14159   0.00000   0.00000   0.00000   0.00000  -3.14159
    D4       -0.00000   0.00000   0.00000   0.00000   0.00000  -0.00000
    D5       -0.00000  -0.00000   0.00000  -0.00000  -0.00000  -0.00000
    D6        3.14159  -0.00000   0.00000  -0.00000  -0.00000   3.14159
    D7        3.14159   0.00000   0.00000   0.00000   0.00000   3.14159
    D8        0.00000  -0.00000   0.00000  -0.00000  -0.00000  -0.00000
    D9       -0.00000  -0.00000   0.00000  -0.00000  -0.00000  -0.00000
   D10        3.14159  -0.00000   0.00000  -0.00000  -0.00000   3.14159
   D11        3.14159  -0.00000   0.00000  -0.00000  -0.00000   3.14159
   D12       -0.00000  -0.00000   0.00000  -0.00000  -0.00000  -0.00000
   D13        0.00000  -0.00000   0.00000  -0.00000  -0.00000   0.00000
   D14        3.14159  -0.00000   0.00000  -0.00000  -0.00000   3.14159
   D15       -3.14159  -0.00000   0.00000  -0.00000  -0.00000  -3.14159
   D16        0.00000   0.00000   0.00000   0.00000   0.00000   0.00000
   D17       -0.00000  -0.00000   0.00000  -0.00000  -0.00000  -0.00000
   D18        3.14159   0.00000   0.00000   0.00000   0.00000   3.14159
   D19        3.14159  -0.00000   0.00000  -0.00000  -0.00000   3.14159
   D20        0.00000   0.00000   0.00000   0.00000   0.00000   0.00000
   D21        0.00000   0.00000   0.00000   0.00000   0.00000   0.00000
   D22       -3.14159   0.00000   0.00000   0.00000   0.00000  -3.14159
   D23       -3.14159  -0.00000   0.00000  -0.00000  -0.00000  -3.14159
   D24        0.00000   0.00000   0.00000   0.00000   0.00000   0.00000
   D25       -0.00000   0.00000   0.00000   0.00000   0.00000  -0.00000
   D26        3.14159   0.00000   0.00000   0.00000   0.00000   3.14159
   D27        3.14159  -0.00000   0.00000  -0.00000  -0.00000   3.14159
   D28       -0.00000   0.00000   0.00000   0.00000   0.00000  -0.00000
   D29        3.14159   0.00000   0.00000   0.00000   0.00000   3.14159
   D30        0.00000   0.00000   0.00000   0.00000   0.00000   0.00000
   D31        0.00000   0.00000   0.00000   0.00000   0.00000   0.00000
   D32       -3.14159  -0.00000   0.00000  -0.00000  -0.00000  -3.14159
   D33       -3.14159   0.00000   0.00000   0.00000   0.00000  -3.14159
   D34        0.00000   0.00000   0.00000  -0.00000  -0.00000   0.00000
   D35       -0.00000  -0.00000   0.00000  -0.00000  -0.00000  -0.00000
   D36        3.14159  -0.00000   0.00000  -0.00000  -0.00000   3.14159
   D37       -0.00000  -0.00000   0.00000  -0.00000  -0.00000  -0.00000
   D38        3.14159  -0.00000   0.00000  -0.00000  -0.00000   3.14159
   D39        3.14159   0.00000   0.00000   0.00000   0.00000   3.14159
   D40       -0.00000   0.00000   0.00000   0.00000   0.00000  -0.00000
   D41       -0.00000  -0.00000   0.00000  -0.00000  -0.00000  -0.00000
   D42       -3.14159  -0.00000   0.00000  -0.00000  -0.00000  -3.14159
   D43        3.14159  -0.00000   0.00000  -0.00000  -0.00000   3.14159
   D44        0.00000  -0.00000   0.00000  -0.00000  -0.00000   0.00000
   D45        0.00000   0.00000   0.00000   0.00000   0.00000   0.00000
   D46       -3.14159   0.00000   0.00000   0.00000   0.00000  -3.14159
   D47        3.14159   0.00000   0.00000   0.00000   0.00000   3.14159
   D48        0.00000   0.00000   0.00000   0.00000   0.00000   0.00000
   D49        0.00000   0.00000   0.00000   0.00000   0.00000   0.00000
   D50       -3.14159   0.00000   0.00000   0.00000   0.00000  -3.14159
   D51        3.14159   0.00000   0.00000   0.00000   0.00000   3.14159
   D52       -0.00000   0.00000   0.00000   0.00000   0.00000  -0.00000
         Item               Value     Threshold  Converged?
 Maximum Force            0.277880     0.000450     NO 
 RMS     Force            0.050474     0.000300     NO 
 Maximum Displacement     1.175238     0.001800     NO 
 RMS     Displacement     0.228223     0.001200     NO 
 Predicted change in Energy=-1.475800D-01
 GradGradGradGradGradGradGradGradGradGradGradGradGradGradGradGradGradGrad

                          Input orientation:                          
 ---------------------------------------------------------------------
 Center     Atomic      Atomic             Coordinates (Angstroms)
 Number     Number       Type             X           Y           Z
 ---------------------------------------------------------------------
      1          6           0       -0.399900   -0.373241    0.072716
      2          6           0        0.926849   -0.470077   -0.382574
      3          6           0        1.765836    0.642986   -0.449938
      4          6           0        1.297135    1.893552   -0.060654
      5          6           0       -0.013386    2.023273    0.395464
      6          6           0       -0.871805    0.916755    0.470459
      7          6           0       -1.156143   -1.736597    0.065814
      8          6           0       -0.416312   -2.843126   -0.385745
      9          6           0       -0.981829   -4.121087   -0.439444
     10          6           0       -2.304215   -4.317795   -0.040717
     11          6           0       -3.051702   -3.229153    0.410005
     12          6           0       -2.486743   -1.948867    0.464325
     13          1           0        1.305988   -1.424941   -0.686814
     14          1           0        1.938804    2.751099   -0.110999
     15          1           0       -0.372453    2.988219    0.694984
     16          1           0        0.600789   -2.707531   -0.695368
     17          1           0       -0.398758   -4.951116   -0.787428
     18          1           0       -2.741973   -5.296059   -0.080219
     19          1           0       -3.082580   -1.144530    0.811691
     20         17           0       -2.481909    1.290039    1.071021
     21         17           0        3.417499    0.464535   -1.027600
     22         17           0       -4.720211   -3.466639    0.915111
 ---------------------------------------------------------------------
                    Distance matrix (angstroms):
                    1          2          3          4          5
     1  C    0.000000
     2  C    1.406033   0.000000
     3  C    2.448734   1.395473   0.000000
     4  C    2.834796   2.414018   1.391091   0.000000
     5  C    2.448844   2.776000   2.405312   1.393678   0.000000
     6  C    1.430029   2.426133   2.806996   2.437317   1.402458
     7  C    1.559068   2.478706   3.803470   4.383213   3.943500
     8  C    2.512129   2.726804   4.113256   5.047544   4.945147
     9  C    3.827179   4.120214   5.499652   6.443061   6.275995
    10  C    4.381642   5.036028   6.429785   7.179899   6.756278
    11  C    3.911784   4.906074   6.240324   6.736172   6.067912
    12  C    2.644025   3.815321   5.063399   5.418258   4.679758
    13  H    2.143132   1.071483   2.131641   3.377062   3.847370
    14  H    3.907018   3.387297   2.142181   1.072223   2.144127
    15  H    3.418681   3.848262   3.373906   2.134669   1.072270
    16  H    2.653346   2.282621   3.555775   4.696565   4.893632
    17  H    4.657981   4.690507   6.007774   7.088986   7.084479
    18  H    5.453699   6.069743   7.465205   8.246531   7.825860
    19  H    2.887515   4.237532   5.319216   5.401188   4.430369
    20  Cl   2.845676   4.102509   4.557996   3.990751   2.662257
    21  Cl   4.060185   2.737315   1.758843   2.733681   4.028119
    22  Cl   5.379946   6.523239   7.798793   8.117402   7.250059
                    6          7          8          9         10
     6  C    0.000000
     7  C    2.699049   0.000000
     8  C    3.882946   1.405583   0.000000
     9  C    5.120536   2.443658   1.398527   0.000000
    10  C    5.451020   2.827012   2.420304   1.395129   0.000000
    11  C    4.684460   2.437075   2.779841   2.408627   1.395359
    12  C    3.289355   1.405121   2.410187   2.792867   2.429033
    13  H    3.400824   2.593390   2.251269   3.544645   4.671147
    14  H    3.406234   5.454300   6.075971   7.474284   8.244842
    15  H    2.142598   4.830519   5.930808   7.224991   7.592812
    16  H    4.082050   2.146840   1.071797   2.137362   3.385346
    17  H    6.019797   3.410980   2.145991   1.072386   2.142298
    18  H    6.511515   3.899480   3.393953   2.146557   1.072470
    19  H    3.041852   2.148961   3.380543   3.852063   3.376694
    20  Cl   1.758537   3.453784   4.844782   5.814812   5.719733
    21  Cl   4.565831   5.192181   5.103990   6.381845   7.522143
    22  Cl   5.849964   4.051780   4.539222   4.029717   2.734064
                   11         12         13         14         15
    11  C    0.000000
    12  C    1.400451   0.000000
    13  H    4.842279   3.998054   0.000000
    14  H    7.806409   6.481215   4.262784   0.000000
    15  H    6.776084   5.375709   4.919605   2.459215   0.000000
    16  H    3.851576   3.384275   1.463700   5.650524   5.943219
    17  H    3.381880   3.865238   3.917932   8.077492   8.076588
    18  H    2.146707   3.400788   5.633782   9.309531   8.651290
    19  H    2.123196   1.059549   4.645824   6.421961   4.943483
    20  Cl   4.602685   3.295242   4.980890   4.803600   2.734049
    21  Cl   7.586871   6.550605   2.853898   2.873164   4.868265
    22  Cl   1.759389   2.737739   6.561232   9.168186   7.785669
                   16         17         18         19         20
    16  H    0.000000
    17  H    2.457894   0.000000
    18  H    4.272346   2.471798   0.000000
    19  H    4.275677   4.924447   4.259896   0.000000
    20  Cl   5.348245   6.837059   6.691015   2.520949   0.000000
    21  Cl   4.255143   6.629538   8.486523   6.944286   6.315749
    22  Cl   5.610965   4.876194   2.872436   2.843364   5.259305
                   21         22
    21  Cl   0.000000
    22  Cl   9.243948   0.000000
 Stoichiometry    C12H7Cl3
 Framework group  C1[X(C12H7Cl3)]
 Deg. of freedom    60
 Full point group                 C1      NOp   1
 Largest Abelian subgroup         C1      NOp   1
 Largest concise Abelian subgroup C1      NOp   1
                         Standard orientation:                         
 ---------------------------------------------------------------------
 Center     Atomic      Atomic             Coordinates (Angstroms)
 Number     Number       Type             X           Y           Z
 ---------------------------------------------------------------------
      1          6           0       -0.710470    0.156606    0.000002
      2          6           0       -1.755552   -0.783997    0.000001
      3          6           0       -3.096020   -0.396067   -0.000002
      4          6           0       -3.430762    0.954149   -0.000003
      5          6           0       -2.418181    1.911759   -0.000000
      6          6           0       -1.065373    1.541895    0.000002
      7          6           0        0.706178   -0.494393    0.000003
      8          6           0        0.732540   -1.899729    0.000005
      9          6           0        1.941476   -2.602830    0.000006
     10          6           0        3.152819   -1.910709    0.000003
     11          6           0        3.143163   -0.515383    0.000001
     12          6           0        1.933344    0.190025    0.000000
     13          1           0       -1.517609   -1.828726    0.000000
     14          1           0       -4.459595    1.256084   -0.000005
     15          1           0       -2.678617    2.951920    0.000001
     16          1           0       -0.190066   -2.445206    0.000005
     17          1           0        1.937921   -3.675210    0.000008
     18          1           0        4.082280   -2.445774    0.000002
     19          1           0        1.962362    1.249177   -0.000003
     20         17           0        0.054888    2.897427    0.000004
     21         17           0       -4.363528   -1.615474   -0.000004
     22         17           0        4.665366    0.366857   -0.000007
 ---------------------------------------------------------------------
 Rotational constants (GHZ):           0.7246146           0.2291641           0.1741029
 Standard basis: 6-311+G(d,p) (5D, 7F)
 There are   411 symmetry adapted cartesian basis functions of A   symmetry.
 There are   396 symmetry adapted basis functions of A   symmetry.
   396 basis functions,   647 primitive gaussians,   411 cartesian basis functions
    65 alpha electrons       65 beta electrons
       nuclear repulsion energy      1168.0152352227 Hartrees.
 NAtoms=   22 NActive=   22 NUniq=   22 SFac= 1.00D+00 NAtFMM=   60 NAOKFM=F Big=F
 Integral buffers will be    131072 words long.
 Raffenetti 2 integral format.
 Two-electron integral symmetry is turned on.
 One-electron integrals computed using PRISM.
 NBasis=   396 RedAO= T EigKep=  1.46D-06  NBF=   396
 NBsUse=   391 1.00D-06 EigRej=  9.13D-07 NBFU=   391
 Initial guess from the checkpoint file:  "/scratch/pkc/Gau-19299.chk"
 B after Tr=     0.000000   -0.000000   -0.000000
         Rot=    0.999679    0.000000    0.000000   -0.025327 Ang=   2.90 deg.
 ExpMin= 4.38D-02 ExpMax= 1.06D+05 ExpMxC= 3.62D+03 IAcc=3 IRadAn=         5 AccDes= 0.00D+00
 Harris functional with IExCor=  402 and IRadAn=       5 diagonalized for initial guess.
 HarFok:  IExCor=  402 AccDes= 0.00D+00 IRadAn=         5 IDoV= 1 UseB2=F ITyADJ=14
 ICtDFT=  3500011 ScaDFX=  1.000000  1.000000  1.000000  1.000000
 FoFCou: FMM=F IPFlag=           0 FMFlag=      100000 FMFlg1=           0
         NFxFlg=           0 DoJE=T BraDBF=F KetDBF=T FulRan=T
         wScrn=  0.000000 ICntrl=       500 IOpCl=  0 I1Cent=   200000004 NGrid=           0
         NMat0=    1 NMatS0=      1 NMatT0=    0 NMatD0=    1 NMtDS0=    0 NMtDT0=    0
 Petite list used in FoFCou.
 Requested convergence on RMS density matrix=1.00D-08 within  32 cycles.
 Requested convergence on MAX density matrix=1.00D-06.
 Requested convergence on             energy=1.00D-06.
 No special actions if energy rises.
 EnCoef did     3 forward-backward iterations
 SCF Done:  E(RB3LYP) =  -1842.26389069     A.U. after   16 cycles
            NFock= 16  Conv=0.49D-08     -V/T= 2.0030
 QCSCF skips out because SCF is already converged.
 Calling FoFJK, ICntrl=      2127 FMM=F ISym2X=0 I1Cent= 0 IOpClX= 0 NMat=1 NMatS=1 NMatT=0.
 ***** Axes restored to original set *****
 -------------------------------------------------------------------
 Center     Atomic                   Forces (Hartrees/Bohr)
 Number     Number              X              Y              Z
 -------------------------------------------------------------------
      1        6          -0.019675341   -0.016719279    0.003342014
      2        6           0.006117343    0.024505845    0.002587158
      3        6          -0.009319530   -0.004069440    0.002306202
      4        6          -0.004094274   -0.004134681    0.000572129
      5        6           0.004104848   -0.013278243   -0.003846082
      6        6           0.015398477   -0.006752271   -0.006341195
      7        6           0.012921443    0.018146439   -0.000848860
      8        6          -0.015412845   -0.014260222    0.002399716
      9        6          -0.005017110    0.016972605    0.004840468
     10        6          -0.000495316    0.004777218    0.001060424
     11        6           0.012010491    0.002573855   -0.003473374
     12        6           0.005229329   -0.008814038   -0.003378280
     13        1           0.007310311    0.008266552   -0.000855917
     14        1           0.003932401    0.006103119   -0.000149319
     15        1          -0.002994274    0.005956946    0.002105294
     16        1          -0.002185176   -0.012250257   -0.001580944
     17        1           0.003957713   -0.006075876   -0.002444966
     18        1          -0.003705536   -0.006359134    0.000026459
     19        1          -0.007792019    0.010385774    0.004517668
     20       17          -0.000382827   -0.005780502   -0.000959531
     21       17          -0.002351862   -0.000132585    0.000749930
     22       17           0.002443753    0.000938177   -0.000628995
 -------------------------------------------------------------------
 Cartesian Forces:  Max     0.024505845 RMS     0.008082141

 GradGradGradGradGradGradGradGradGradGradGradGradGradGradGradGradGradGrad
 Berny optimization.
 Using GEDIIS/GDIIS optimizer.
 FormGI is forming the generalized inverse of G from B-inverse, IUseBI=4.
 Internal  Forces:  Max     0.061148784 RMS     0.011377862
 Search for a local minimum.
 Step number   2 out of a maximum of  121
 All quantities printed in internal units (Hartrees-Bohrs-Radians)
 Mixed Optimization -- RFO/linear search
 Update second derivatives using D2CorX and points    1    2
 DE= -3.92D-02 DEPred=-1.48D-01 R= 2.66D-01
 Trust test= 2.66D-01 RLast= 3.00D-01 DXMaxT set to 3.00D-01
 ITU=  0  0
 Use linear search instead of GDIIS.
     Eigenvalues ---    0.00237   0.01478   0.01484   0.02070   0.02070
     Eigenvalues ---    0.02070   0.02070   0.02070   0.02070   0.02070
     Eigenvalues ---    0.02070   0.02070   0.02070   0.02070   0.02070
     Eigenvalues ---    0.02070   0.02070   0.02070   0.02070   0.15970
     Eigenvalues ---    0.16000   0.16000   0.16000   0.16000   0.16000
     Eigenvalues ---    0.16034   0.21995   0.22388   0.23404   0.23493
     Eigenvalues ---    0.23495   0.24470   0.24887   0.25000   0.25000
     Eigenvalues ---    0.25000   0.28453   0.29537   0.29539   0.29539
     Eigenvalues ---    0.37078   0.37190   0.37230   0.37230   0.37230
     Eigenvalues ---    0.37230   0.37230   0.40432   0.41303   0.41345
     Eigenvalues ---    0.41591   0.45048   0.45332   0.45389   0.45389
     Eigenvalues ---    0.45389   0.45389   0.45389   0.45389   2.09101
 RFO step:  Lambda=-1.36597561D-02 EMin= 2.36824176D-03
 Quartic linear search produced a step of -0.32181.
 Iteration  1 RMS(Cart)=  0.15080609 RMS(Int)=  0.00473210
 Iteration  2 RMS(Cart)=  0.00872656 RMS(Int)=  0.00004934
 Iteration  3 RMS(Cart)=  0.00003163 RMS(Int)=  0.00004844
 Iteration  4 RMS(Cart)=  0.00000000 RMS(Int)=  0.00004844
 Variable       Old X    -DE/DX   Delta X   Delta X   Delta X     New X
                                 (Linear)    (Quad)   (Total)
    R1        2.65702   0.00788  -0.00282   0.01902   0.01627   2.67329
    R2        2.70236  -0.01750  -0.01741   0.02064   0.00333   2.70570
    R3        2.94621  -0.00623  -0.01160   0.01480   0.00321   2.94942
    R4        2.63706  -0.00708   0.00360  -0.01926  -0.01569   2.62137
    R5        2.02481  -0.00454  -0.00090  -0.00561  -0.00652   2.01829
    R6        2.62878  -0.00636   0.00627  -0.02544  -0.01927   2.60951
    R7        3.32373  -0.00244   0.00070  -0.00712  -0.00641   3.31732
    R8        2.63367  -0.01026   0.00470  -0.02751  -0.02289   2.61078
    R9        2.02621   0.00724  -0.00135   0.01623   0.01488   2.04109
   R10        2.65026  -0.00715  -0.00064  -0.00929  -0.00990   2.64036
   R11        2.02630   0.00695  -0.00138   0.01580   0.01442   2.04072
   R12        3.32315  -0.00120   0.00089  -0.00487  -0.00398   3.31917
   R13        2.65617   0.01035  -0.00254   0.02247   0.01995   2.67612
   R14        2.65529  -0.00241  -0.00226   0.00281   0.00061   2.65590
   R15        2.64283  -0.00668   0.00175  -0.01393  -0.01223   2.63061
   R16        2.02540  -0.00317  -0.00109  -0.00271  -0.00380   2.02160
   R17        2.63641  -0.00601   0.00381  -0.01915  -0.01540   2.62101
   R18        2.02652   0.00765  -0.00145   0.01721   0.01576   2.04227
   R19        2.63685  -0.01030   0.00367  -0.02542  -0.02177   2.61507
   R20        2.02668   0.00731  -0.00150   0.01675   0.01525   2.04192
   R21        2.64647  -0.00873   0.00058  -0.01462  -0.01400   2.63247
   R22        3.32476  -0.00262   0.00037  -0.00669  -0.00631   3.31845
   R23        2.00226   0.01375   0.00636   0.00757   0.01392   2.01618
    A1        2.05283  -0.01615   0.01338  -0.07414  -0.06058   1.99225
    A2        1.97801   0.06115   0.03746   0.06628   0.10365   2.08166
    A3        2.25235  -0.04500  -0.05083   0.00785  -0.04307   2.20928
    A4        2.12706   0.00303  -0.01051   0.03555   0.02508   2.15214
    A5        2.07969   0.00871   0.00473   0.02322   0.02793   2.10762
    A6        2.07643  -0.01174   0.00578  -0.05877  -0.05301   2.02342
    A7        2.09552   0.00576  -0.00036   0.01813   0.01763   2.11315
    A8        2.09383  -0.00352   0.00018  -0.01072  -0.01048   2.08336
    A9        2.09384  -0.00223   0.00018  -0.00740  -0.00716   2.08668
   A10        2.08528  -0.00772   0.00293  -0.02809  -0.02534   2.05994
   A11        2.09927   0.00441  -0.00157   0.01641   0.01493   2.11421
   A12        2.09863   0.00331  -0.00136   0.01168   0.01041   2.10904
   A13        2.11721  -0.00030  -0.00734   0.01531   0.00793   2.12514
   A14        2.08296   0.00091   0.00368  -0.00472  -0.00102   2.08195
   A15        2.08302  -0.00061   0.00366  -0.01060  -0.00691   2.07610
   A16        2.08848   0.01537   0.00190   0.03324   0.03528   2.12375
   A17        2.20014  -0.01724  -0.03403   0.03914   0.00505   2.20519
   A18        1.99457   0.00186   0.03213  -0.07238  -0.04032   1.95424
   A19        2.02031   0.05725   0.02384   0.08845   0.11225   2.13256
   A20        2.20208  -0.04507  -0.03466  -0.03244  -0.06715   2.13494
   A21        2.06079  -0.01218   0.01081  -0.05601  -0.04510   2.01569
   A22        2.11632   0.00179  -0.00706   0.02379   0.01672   2.13305
   A23        2.08599   0.01140   0.00270   0.03782   0.04053   2.12652
   A24        2.08087  -0.01319   0.00435  -0.06161  -0.05725   2.02362
   A25        2.09572   0.00506  -0.00043   0.01569   0.01516   2.11088
   A26        2.09425  -0.00227   0.00005  -0.00647  -0.00637   2.08788
   A27        2.09321  -0.00279   0.00038  -0.00922  -0.00879   2.08443
   A28        2.08298  -0.00628   0.00367  -0.02912  -0.02554   2.05744
   A29        2.10015   0.00399  -0.00185   0.01791   0.01610   2.11626
   A30        2.10006   0.00229  -0.00182   0.01121   0.00944   2.10949
   A31        2.10559   0.00599  -0.00360   0.02190   0.01831   2.12390
   A32        2.08915  -0.00200   0.00169  -0.00812  -0.00643   2.08271
   A33        2.08844  -0.00399   0.00191  -0.01378  -0.01187   2.07657
   A34        2.10496   0.00562  -0.00340   0.02375   0.02045   2.12541
   A35        2.10694  -0.00273  -0.00404   0.00069  -0.00340   2.10354
   A36        2.07128  -0.00289   0.00744  -0.02444  -0.01706   2.05423
    D1        0.00000  -0.00000  -0.00000  -0.00000  -0.00000   0.00000
    D2        3.14159  -0.00000  -0.00000  -0.00000  -0.00000   3.14159
    D3       -3.14159  -0.00000  -0.00000  -0.00000  -0.00000  -3.14159
    D4       -0.00000  -0.00000  -0.00000   0.00000   0.00000  -0.00000
    D5       -0.00000   0.00000   0.00000   0.00000   0.00000  -0.00000
    D6        3.14159   0.00000   0.00000   0.00000   0.00000   3.14159
    D7        3.14159  -0.00000  -0.00000   0.00000   0.00000   3.14159
    D8       -0.00000  -0.00000   0.00000  -0.00000  -0.00000  -0.00000
    D9       -0.00000  -0.00000   0.00000  -0.00000  -0.00000  -0.00000
   D10        3.14159  -0.00000   0.00000  -0.00000  -0.00000   3.14159
   D11        3.14159  -0.00000   0.00000  -0.00000  -0.00000   3.14159
   D12       -0.00000  -0.00000   0.00000   0.00000   0.00000  -0.00000
   D13        0.00000  -0.00000   0.00000  -0.00000  -0.00000   0.00000
   D14        3.14159   0.00000   0.00000   0.00000   0.00000   3.14159
   D15       -3.14159  -0.00000   0.00000  -0.00000  -0.00000  -3.14159
   D16        0.00000  -0.00000  -0.00000  -0.00000  -0.00000   0.00000
   D17       -0.00000   0.00000   0.00000   0.00000   0.00000  -0.00000
   D18        3.14159   0.00000  -0.00000   0.00000   0.00000   3.14159
   D19        3.14159   0.00000   0.00000   0.00000   0.00000   3.14159
   D20        0.00000  -0.00000  -0.00000  -0.00000  -0.00000   0.00000
   D21        0.00000  -0.00000  -0.00000  -0.00000  -0.00000   0.00000
   D22       -3.14159  -0.00000  -0.00000  -0.00000  -0.00000  -3.14159
   D23       -3.14159  -0.00000   0.00000  -0.00000  -0.00000  -3.14159
   D24        0.00000  -0.00000  -0.00000  -0.00000  -0.00000   0.00000
   D25       -0.00000   0.00000  -0.00000   0.00000   0.00000  -0.00000
   D26        3.14159   0.00000  -0.00000   0.00000   0.00000   3.14159
   D27        3.14159   0.00000   0.00000   0.00000   0.00000   3.14159
   D28       -0.00000   0.00000  -0.00000   0.00000   0.00000  -0.00000
   D29        3.14159  -0.00000  -0.00000   0.00000   0.00000  -3.14159
   D30        0.00000  -0.00000  -0.00000  -0.00000  -0.00000   0.00000
   D31        0.00000  -0.00000  -0.00000  -0.00000  -0.00000   0.00000
   D32       -3.14159  -0.00000   0.00000  -0.00000  -0.00000  -3.14159
   D33       -3.14159  -0.00000  -0.00000  -0.00000  -0.00000  -3.14159
   D34        0.00000  -0.00000   0.00000  -0.00000  -0.00000  -0.00000
   D35       -0.00000   0.00000   0.00000   0.00000   0.00000  -0.00000
   D36        3.14159   0.00000   0.00000   0.00000   0.00000   3.14159
   D37       -0.00000  -0.00000   0.00000   0.00000   0.00000  -0.00000
   D38        3.14159  -0.00000   0.00000  -0.00000  -0.00000   3.14159
   D39        3.14159   0.00000  -0.00000   0.00000   0.00000   3.14159
   D40       -0.00000   0.00000  -0.00000   0.00000   0.00000  -0.00000
   D41       -0.00000   0.00000   0.00000   0.00000   0.00000   0.00000
   D42       -3.14159  -0.00000   0.00000  -0.00000  -0.00000  -3.14159
   D43        3.14159   0.00000   0.00000   0.00000   0.00000  -3.14159
   D44        0.00000  -0.00000   0.00000  -0.00000  -0.00000   0.00000
   D45        0.00000   0.00000  -0.00000   0.00000   0.00000   0.00000
   D46       -3.14159  -0.00000  -0.00000  -0.00000  -0.00000  -3.14159
   D47        3.14159   0.00000  -0.00000   0.00000   0.00000   3.14159
   D48        0.00000  -0.00000  -0.00000  -0.00000  -0.00000   0.00000
   D49        0.00000  -0.00000  -0.00000  -0.00000  -0.00000  -0.00000
   D50       -3.14159  -0.00000  -0.00000  -0.00000  -0.00000  -3.14159
   D51        3.14159   0.00000  -0.00000   0.00000   0.00000   3.14159
   D52       -0.00000   0.00000  -0.00000   0.00000   0.00000  -0.00000
         Item               Value     Threshold  Converged?
 Maximum Force            0.061149     0.000450     NO 
 RMS     Force            0.011378     0.000300     NO 
 Maximum Displacement     0.602776     0.001800     NO 
 RMS     Displacement     0.153906     0.001200     NO 
 Predicted change in Energy=-8.993582D-03
 GradGradGradGradGradGradGradGradGradGradGradGradGradGradGradGradGradGrad

                          Input orientation:                          
 ---------------------------------------------------------------------
 Center     Atomic      Atomic             Coordinates (Angstroms)
 Number     Number       Type             X           Y           Z
 ---------------------------------------------------------------------
      1          6           0       -0.298155   -0.441048    0.026462
      2          6           0        1.047467   -0.386156   -0.406550
      3          6           0        1.792313    0.783797   -0.432215
      4          6           0        1.246160    1.985487   -0.026595
      5          6           0       -0.065824    1.989047    0.406311
      6          6           0       -0.832485    0.821426    0.439602
      7          6           0       -1.047809   -1.809954    0.016347
      8          6           0       -0.425889   -3.007428   -0.413447
      9          6           0       -1.093950   -4.228671   -0.422711
     10          6           0       -2.413393   -4.323004   -0.005726
     11          6           0       -3.042256   -3.165720    0.418808
     12          6           0       -2.384089   -1.938044    0.432539
     13          1           0        1.550989   -1.267798   -0.738016
     14          1           0        1.825227    2.897030   -0.046175
     15          1           0       -0.513389    2.917639    0.728160
     16          1           0        0.588940   -3.026506   -0.751373
     17          1           0       -0.578636   -5.116988   -0.759320
     18          1           0       -2.936716   -5.268346   -0.010857
     19          1           0       -2.929837   -1.086540    0.772262
     20         17           0       -2.459000    1.119944    1.031527
     21         17           0        3.456059    0.733069   -0.989870
     22         17           0       -4.712745   -3.241535    0.954927
[...]
     18          1           0        4.303334   -1.757474    0.872771
     19          1           0        1.531819    0.718809   -1.264451
     20         17           0        0.089514    2.687780    0.604396
     21         17           0       -4.252541   -1.681746   -0.604435
     22         17           0        4.296666    0.046613   -1.347401
 ---------------------------------------------------------------------
 Rotational constants (GHZ):           0.7027026           0.2267325           0.1936038

 **********************************************************************

            Population analysis using the SCF Density.

 **********************************************************************

 Orbital symmetries:
       Occupied  (A) (A) (A) (A) (A) (A) (A) (A) (A) (A) (A) (A)
                 (A) (A) (A) (A) (A) (A) (A) (A) (A) (A) (A) (A)
                 (A) (A) (A) (A) (A) (A) (A) (A) (A) (A) (A) (A)
                 (A) (A) (A) (A) (A) (A) (A) (A) (A) (A) (A) (A)
                 (A) (A) (A) (A) (A) (A) (A) (A) (A) (A) (A) (A)
                 (A) (A) (A) (A) (A)
       Virtual   (A) (A) (A) (A) (A) (A) (A) (A) (A) (A) (A) (A)
                 (A) (A) (A) (A) (A) (A) (A) (A) (A) (A) (A) (A)
                 (A) (A) (A) (A) (A) (A) (A) (A) (A) (A) (A) (A)
                 (A) (A) (A) (A) (A) (A) (A) (A) (A) (A) (A) (A)
                 (A) (A) (A) (A) (A) (A) (A) (A) (A) (A) (A) (A)
                 (A) (A) (A) (A) (A) (A) (A) (A) (A) (A) (A) (A)
                 (A) (A) (A) (A) (A) (A) (A) (A) (A) (A) (A) (A)
                 (A) (A) (A) (A) (A) (A) (A) (A) (A) (A) (A) (A)
                 (A) (A) (A) (A) (A) (A) (A) (A) (A) (A) (A) (A)
                 (A) (A) (A) (A) (A) (A) (A) (A) (A) (A) (A) (A)
                 (A) (A) (A) (A) (A) (A) (A) (A) (A) (A) (A) (A)
                 (A) (A) (A) (A) (A) (A) (A) (A) (A) (A) (A) (A)
                 (A) (A) (A) (A) (A) (A) (A) (A) (A) (A) (A) (A)
                 (A) (A) (A) (A) (A) (A) (A) (A) (A) (A) (A) (A)
                 (A) (A) (A) (A) (A) (A) (A) (A) (A) (A) (A) (A)
                 (A) (A) (A) (A) (A) (A) (A) (A) (A) (A) (A) (A)
                 (A) (A) (A) (A) (A) (A) (A) (A) (A) (A) (A) (A)
                 (A) (A) (A) (A) (A) (A) (A) (A) (A) (A) (A) (A)
                 (A) (A) (A) (A) (A) (A) (A) (A) (A) (A) (A) (A)
                 (A) (A) (A) (A) (A) (A) (A) (A) (A) (A) (A) (A)
                 (A) (A) (A) (A) (A) (A) (A) (A) (A) (A) (A) (A)
                 (A) (A) (A) (A) (A) (A) (A) (A) (A) (A) (A) (A)
                 (A) (A) (A) (A) (A) (A) (A) (A) (A) (A) (A) (A)
                 (A) (A) (A) (A) (A) (A) (A) (A) (A) (A) (A) (A)
                 (A) (A) (A) (A) (A) (A) (A) (A) (A) (A) (A) (A)
                 (A) (A) (A) (A) (A) (A) (A) (A) (A) (A) (A) (A)
                 (A) (A) (A) (A) (A) (A) (A) (A) (A) (A) (A) (A)
                 (A) (A) (A) (A) (A) (A)
 The electronic state is 1-A.
 Alpha  occ. eigenvalues -- -101.56681-101.56537-101.56000 -10.25843 -10.25694
 Alpha  occ. eigenvalues --  -10.25043 -10.22383 -10.21391 -10.20994 -10.20934
 Alpha  occ. eigenvalues --  -10.20906 -10.20063 -10.19985 -10.19917 -10.19672
 Alpha  occ. eigenvalues --   -9.48136  -9.48010  -9.47457  -7.24600  -7.24475
 Alpha  occ. eigenvalues --   -7.23917  -7.23616  -7.23583  -7.23495  -7.23446
 Alpha  occ. eigenvalues --   -7.22941  -7.22907  -0.92642  -0.90580  -0.88995
 Alpha  occ. eigenvalues --   -0.85675  -0.83711  -0.80541  -0.76645  -0.74966
 Alpha  occ. eigenvalues --   -0.73655  -0.66306  -0.63961  -0.61867  -0.59884
 Alpha  occ. eigenvalues --   -0.54438  -0.52668  -0.51439  -0.49148  -0.48945
 Alpha  occ. eigenvalues --   -0.47064  -0.45438  -0.45199  -0.44661  -0.42621
 Alpha  occ. eigenvalues --   -0.41149  -0.40976  -0.39536  -0.38162  -0.37918
 Alpha  occ. eigenvalues --   -0.37772  -0.34707  -0.33183  -0.32990  -0.32778
 Alpha  occ. eigenvalues --   -0.32341  -0.29690  -0.27229  -0.26346  -0.25553
 Alpha virt. eigenvalues --   -0.05885  -0.04697  -0.03407  -0.02448  -0.00749
 Alpha virt. eigenvalues --   -0.00621   0.00580   0.00731   0.01079   0.02024
 Alpha virt. eigenvalues --    0.02506   0.03058   0.04006   0.04404   0.04756
 Alpha virt. eigenvalues --    0.05120   0.05430   0.06372   0.06848   0.07234
 Alpha virt. eigenvalues --    0.07664   0.08151   0.09174   0.09342   0.09900
 Alpha virt. eigenvalues --    0.10470   0.10619   0.11011   0.11457   0.11734
 Alpha virt. eigenvalues --    0.11914   0.12443   0.12696   0.13225   0.13297
 Alpha virt. eigenvalues --    0.13839   0.14300   0.14961   0.15309   0.15966
 Alpha virt. eigenvalues --    0.16211   0.16465   0.16576   0.17223   0.17403
 Alpha virt. eigenvalues --    0.17841   0.18421   0.19136   0.19434   0.19648
 Alpha virt. eigenvalues --    0.19881   0.20480   0.20856   0.21361   0.21627
 Alpha virt. eigenvalues --    0.21703   0.21869   0.22302   0.22752   0.23044
 Alpha virt. eigenvalues --    0.23719   0.24087   0.24843   0.25001   0.25358
 Alpha virt. eigenvalues --    0.25818   0.26393   0.27093   0.27482   0.27945
 Alpha virt. eigenvalues --    0.28287   0.28392   0.28583   0.29768   0.29858
 Alpha virt. eigenvalues --    0.30062   0.30680   0.31132   0.31380   0.32316
 Alpha virt. eigenvalues --    0.33788   0.34609   0.35090   0.35389   0.42493
 Alpha virt. eigenvalues --    0.42916   0.43552   0.44426   0.45566   0.45772
 Alpha virt. eigenvalues --    0.46587   0.47382   0.47555   0.48262   0.49555
 Alpha virt. eigenvalues --    0.50668   0.51604   0.52166   0.53406   0.53954
 Alpha virt. eigenvalues --    0.55291   0.55455   0.56289   0.56754   0.57144
 Alpha virt. eigenvalues --    0.58068   0.58758   0.59761   0.60240   0.61254
 Alpha virt. eigenvalues --    0.61654   0.62251   0.63156   0.63633   0.65922
 Alpha virt. eigenvalues --    0.66193   0.66726   0.67375   0.68281   0.68752
 Alpha virt. eigenvalues --    0.69270   0.69498   0.70131   0.70697   0.71080
 Alpha virt. eigenvalues --    0.71807   0.72257   0.74139   0.75705   0.78025
 Alpha virt. eigenvalues --    0.81273   0.81753   0.81924   0.82983   0.83584
 Alpha virt. eigenvalues --    0.84344   0.84834   0.85406   0.85589   0.85816
 Alpha virt. eigenvalues --    0.85975   0.86610   0.87139   0.87541   0.88767
 Alpha virt. eigenvalues --    0.89401   0.89658   0.90573   0.91237   0.92474
 Alpha virt. eigenvalues --    0.93993   0.94531   0.94927   0.95666   0.96038
 Alpha virt. eigenvalues --    0.97025   0.98470   0.98804   1.00225   1.01277
 Alpha virt. eigenvalues --    1.01538   1.04342   1.05040   1.05679   1.07043
 Alpha virt. eigenvalues --    1.10246   1.10550   1.11011   1.13727   1.17319
 Alpha virt. eigenvalues --    1.19362   1.20214   1.22669   1.25087   1.25375
 Alpha virt. eigenvalues --    1.26134   1.28844   1.29904   1.30700   1.33065
 Alpha virt. eigenvalues --    1.36290   1.40881   1.43757   1.47418   1.48444
 Alpha virt. eigenvalues --    1.49376   1.51191   1.52598   1.54790   1.55387
 Alpha virt. eigenvalues --    1.56750   1.57502   1.59237   1.60191   1.61320
 Alpha virt. eigenvalues --    1.63583   1.64198   1.66698   1.68030   1.69400
 Alpha virt. eigenvalues --    1.70362   1.71211   1.72528   1.74729   1.76655
 Alpha virt. eigenvalues --    1.80228   1.83839   1.86932   1.87715   1.89187
 Alpha virt. eigenvalues --    1.89851   1.90440   1.91484   1.92769   1.93323
 Alpha virt. eigenvalues --    1.95730   1.95987   1.96697   1.97134   1.98387
 Alpha virt. eigenvalues --    1.99165   2.01793   2.03529   2.04238   2.07099
 Alpha virt. eigenvalues --    2.07886   2.10794   2.15174   2.18035   2.19192
 Alpha virt. eigenvalues --    2.24858   2.27073   2.27788   2.29379   2.29931
 Alpha virt. eigenvalues --    2.31308   2.32622   2.34771   2.37978   2.38232
 Alpha virt. eigenvalues --    2.40143   2.41900   2.44736   2.46053   2.50122
 Alpha virt. eigenvalues --    2.52023   2.53934   2.54920   2.55757   2.59273
 Alpha virt. eigenvalues --    2.63938   2.64465   2.66548   2.67972   2.68369
 Alpha virt. eigenvalues --    2.69529   2.70374   2.72573   2.73228   2.74670
 Alpha virt. eigenvalues --    2.75564   2.76186   2.77673   2.78658   2.79330
 Alpha virt. eigenvalues --    2.80152   2.81384   2.82215   2.84250   2.85378
 Alpha virt. eigenvalues --    2.87510   2.89006   2.92287   2.99070   3.00159
 Alpha virt. eigenvalues --    3.06938   3.08369   3.08825   3.14298   3.17479
 Alpha virt. eigenvalues --    3.18947   3.21433   3.26601   3.34130   3.35407
 Alpha virt. eigenvalues --    3.36961   3.40886   3.50085   3.53103   3.58421
 Alpha virt. eigenvalues --    3.59777   3.70005   3.76089   3.80583   3.87256
 Alpha virt. eigenvalues --    3.99623   4.04262   4.10557   4.12372   4.13298
 Alpha virt. eigenvalues --    4.39249   4.81222   4.83744   9.77371   9.78172
 Alpha virt. eigenvalues --    9.80590  23.45015  23.61605  23.84986  23.90330
 Alpha virt. eigenvalues --   23.91747  23.95911  23.99876  24.04119  24.05704
 Alpha virt. eigenvalues --   24.08161  24.13483  24.16584  25.82402  25.83330
 Alpha virt. eigenvalues --   25.88794  26.11074  26.13139  26.27138  26.59347
 Alpha virt. eigenvalues --   26.60624  26.71293 215.76608 215.77368 215.80341
          Condensed to atoms (all electrons):
               1          2          3          4          5          6
     1  C   36.574741   2.552803  -2.617230  -2.684548  -5.225726 -13.106258
     2  C    2.552803  50.749088  -6.897385  -8.287598  -9.335080  -9.250308
     3  C   -2.617230  -6.897385  19.156822  -1.581497   0.597907  -3.581603
     4  C   -2.684548  -8.287598  -1.581497  16.688580   1.162173   0.229086
     5  C   -5.225726  -9.335080   0.597907   1.162173  22.611060  -7.217129
     6  C  -13.106258  -9.250308  -3.581603   0.229086  -7.217129  35.982654
     7  C   -6.018869 -13.411850   1.522220   0.546787   4.748415   0.448973
     8  C    1.490325   0.795057   0.130323  -0.487168   0.761952  -0.493440
     9  C   -0.125658  -0.666189   0.162001  -0.106531   0.135063   0.513414
    10  C    0.222423   0.471468  -0.178360   0.031181  -0.011214  -0.306121
    11  C    3.354147  -0.373838   0.725623  -0.158986  -0.508155  -0.485372
    12  C   -9.950182  -0.570437  -1.277021   0.856297   0.199746   2.875822
    13  H    0.042746   0.080178   0.022373   0.047685   0.020502   0.004925
    14  H    0.033111  -0.004961   0.105355   0.264359   0.024338  -0.074117
    15  H    0.100212  -0.027745  -0.024888  -0.055726   0.336132   0.015903
    16  H    0.016126   0.116572  -0.030169  -0.001095  -0.001087  -0.020283
    17  H    0.011118   0.001783  -0.001182   0.000132  -0.000391  -0.000943
    18  H    0.010458   0.000545   0.000023  -0.000005  -0.000192  -0.002623
    19  H    0.007791  -0.018333  -0.010929   0.005200  -0.000349   0.064092
    20  Cl   0.841935   0.813095  -0.066591   0.167901  -1.433144   0.055484
    21  Cl  -0.272371   0.632292  -1.201798  -0.047924   0.138630   0.144445
    22  Cl  -0.124454  -0.059242   0.017432  -0.003117   0.024928   0.045394
               7          8          9         10         11         12
     1  C   -6.018869   1.490325  -0.125658   0.222423   3.354147  -9.950182
     2  C  -13.411850   0.795057  -0.666189   0.471468  -0.373838  -0.570437
     3  C    1.522220   0.130323   0.162001  -0.178360   0.725623  -1.277021
     4  C    0.546787  -0.487168  -0.106531   0.031181  -0.158986   0.856297
     5  C    4.748415   0.761952   0.135063  -0.011214  -0.508155   0.199746
     6  C    0.448973  -0.493440   0.513414  -0.306121  -0.485372   2.875822
     7  C   27.378047  -3.532582  -1.078242  -1.760430  -3.061863   1.051806
     8  C   -3.532582  21.146863  -0.577802   1.853384  -2.253809 -12.658595
     9  C   -1.078242  -0.577802   9.297326   0.281401   0.150932  -2.156862
    10  C   -1.760430   1.853384   0.281401  15.881037  -2.360043  -7.527664
    11  C   -3.061863  -2.253809   0.150932  -2.360043  19.882511  -9.177365
    12  C    1.051806 -12.658595  -2.156862  -7.527664  -9.177365  45.426860
    13  H    0.080343   0.087030  -0.005383   0.009028  -0.020264  -0.017924
    14  H    0.006148   0.000246   0.000088  -0.000025   0.000053  -0.001771
    15  H    0.008837   0.000285  -0.000355   0.000148  -0.000657  -0.000109
    16  H   -0.027581   0.337586  -0.054450  -0.000496  -0.010176   0.028047
    17  H    0.007289   0.022431   0.355665   0.005973  -0.015823  -0.038831
    18  H    0.040499  -0.055983  -0.001777   0.284850   0.072460   0.005003
    19  H    0.012025   0.058909  -0.022279   0.059457   0.015727   0.188528
    20  Cl  -1.254784  -0.294688  -0.019258  -0.091383   0.536709  -0.393453
    21  Cl  -0.132091   0.050658   0.023883  -0.005111   0.014318  -0.076748
    22  Cl  -0.275001   0.054347   0.212526  -0.203672  -1.075110   0.650990
              13         14         15         16         17         18
     1  C    0.042746   0.033111   0.100212   0.016126   0.011118   0.010458
     2  C    0.080178  -0.004961  -0.027745   0.116572   0.001783   0.000545
     3  C    0.022373   0.105355  -0.024888  -0.030169  -0.001182   0.000023
     4  C    0.047685   0.264359  -0.055726  -0.001095   0.000132  -0.000005
     5  C    0.020502   0.024338   0.336132  -0.001087  -0.000391  -0.000192
     6  C    0.004925  -0.074117   0.015903  -0.020283  -0.000943  -0.002623
     7  C    0.080343   0.006148   0.008837  -0.027581   0.007289   0.040499
     8  C    0.087030   0.000246   0.000285   0.337586   0.022431  -0.055983
     9  C   -0.005383   0.000088  -0.000355  -0.054450   0.355665  -0.001777
    10  C    0.009028  -0.000025   0.000148  -0.000496   0.005973   0.284850
    11  C   -0.020264   0.000053  -0.000657  -0.010176  -0.015823   0.072460
    12  C   -0.017924  -0.001771  -0.000109   0.028047  -0.038831   0.005003
    13  H    0.507806  -0.000291   0.000045  -0.000662   0.000020  -0.000001
    14  H   -0.000291   0.508147  -0.008032  -0.000001  -0.000000   0.000000
    15  H    0.000045  -0.008032   0.507916   0.000002   0.000000  -0.000000
    16  H   -0.000662  -0.000001   0.000002   0.526545  -0.007168  -0.000190
    17  H    0.000020  -0.000000   0.000000  -0.007168   0.531323  -0.008009
    18  H   -0.000001   0.000000  -0.000000  -0.000190  -0.008009   0.511748
    19  H    0.000017   0.000000   0.000012  -0.000178   0.000063  -0.000256
    20  Cl  -0.002157   0.000480  -0.009130  -0.001254  -0.000105   0.000258
    21  Cl  -0.011513  -0.008253   0.000748   0.000504  -0.000002   0.000001
    22  Cl  -0.000057  -0.000001  -0.000019   0.000287   0.000592  -0.007705
              19         20         21         22
     1  C    0.007791   0.841935  -0.272371  -0.124454
     2  C   -0.018333   0.813095   0.632292  -0.059242
     3  C   -0.010929  -0.066591  -1.201798   0.017432
     4  C    0.005200   0.167901  -0.047924  -0.003117
     5  C   -0.000349  -1.433144   0.138630   0.024928
     6  C    0.064092   0.055484   0.144445   0.045394
     7  C    0.012025  -1.254784  -0.132091  -0.275001
     8  C    0.058909  -0.294688   0.050658   0.054347
     9  C   -0.022279  -0.019258   0.023883   0.212526
    10  C    0.059457  -0.091383  -0.005111  -0.203672
    11  C    0.015727   0.536709   0.014318  -1.075110
    12  C    0.188528  -0.393453  -0.076748   0.650990
    13  H    0.000017  -0.002157  -0.011513  -0.000057
    14  H    0.000000   0.000480  -0.008253  -0.000001
    15  H    0.000012  -0.009130   0.000748  -0.000019
    16  H   -0.000178  -0.001254   0.000504   0.000287
    17  H    0.000063  -0.000105  -0.000002   0.000592
    18  H   -0.000256   0.000258   0.000001  -0.007705
    19  H    0.498846  -0.003550  -0.000107  -0.008465
    20  Cl  -0.003550  17.731424  -0.008550   0.001383
    21  Cl  -0.000107  -0.008550  17.364853   0.000080
    22  Cl  -0.008465   0.001383   0.000080  17.345802
 Mulliken charges:
               1
     1  C    0.867358
     2  C   -1.309917
     3  C    1.028576
     4  C   -0.585188
     5  C   -1.028380
     6  C    0.158005
     7  C    0.701904
     8  C   -0.435329
     9  C   -0.317514
    10  C   -0.655831
    11  C    0.748980
    12  C   -1.436138
    13  H    0.155553
    14  H    0.155126
    15  H    0.156420
    16  H    0.129121
    17  H    0.136063
    18  H    0.150896
    19  H    0.153778
    20  Cl   0.429377
    21  Cl   0.394055
    22  Cl   0.403083
 Sum of Mulliken charges =  -0.00000
 Mulliken charges with hydrogens summed into heavy atoms:
               1
     1  C    0.867358
     2  C   -1.154363
     3  C    1.028576
     4  C   -0.430061
     5  C   -0.871960
     6  C    0.158005
     7  C    0.701904
     8  C   -0.306208
     9  C   -0.181452
    10  C   -0.504936
    11  C    0.748980
    12  C   -1.282360
    20  Cl   0.429377
    21  Cl   0.394055
    22  Cl   0.403083
 Electronic spatial extent (au):  <R**2>=           5284.2691
 Charge=             -0.0000 electrons
 Dipole moment (field-independent basis, Debye):
    X=             -0.9035    Y=             -0.5162    Z=              1.0905  Tot=              1.5073
 Quadrupole moment (field-independent basis, Debye-Ang):
   XX=           -109.4772   YY=           -105.1394   ZZ=           -108.2525
   XY=             -9.0327   XZ=              3.5389   YZ=             -5.0802
 Traceless Quadrupole moment (field-independent basis, Debye-Ang):
   XX=             -1.8542   YY=              2.4837   ZZ=             -0.6295
   XY=             -9.0327   XZ=              3.5389   YZ=             -5.0802
 Octapole moment (field-independent basis, Debye-Ang**2):
  XXX=            -10.1843  YYY=              5.1519  ZZZ=             -1.9356  XYY=             -1.9155
  XXY=             15.6796  XXZ=             12.6905  XZZ=              6.6609  YZZ=             -5.8587
  YYZ=              4.8704  XYZ=             -7.8410
 Hexadecapole moment (field-independent basis, Debye-Ang**3):
 XXXX=          -5077.1423 YYYY=          -1436.4224 ZZZZ=           -548.7036 XXXY=           -108.1594
 XXXZ=             46.1075 YYYX=             14.8512 YYYZ=             -2.6893 ZZZX=            -16.1170
 ZZZY=            -13.1303 XXYY=          -1029.3315 XXZZ=           -954.1217 YYZZ=           -322.1333
 XXYZ=            -34.0289 YYXZ=             19.6221 ZZXY=              5.8567
 N-N= 1.179508134872D+03 E-N=-6.711025594638D+03  KE= 1.836983035797D+03
 1\1\GINC-DAMODAR\FOpt\RB3LYP\6-311+G(d,p)\C12H7Cl3\PKC\15-Mar-2022\0\\
 # opt b3lyp/6-311+g(d,p) scf=xqc\\Title Card Required\\0,1\C,-0.307163
 0214,-0.4676568751,-0.0104532576\C,1.0870660269,-0.5037117696,0.140300
 7965\C,1.8325422084,0.6673301407,0.1605307485\C,1.2204376909,1.9090386
 265,0.0322078618\C,-0.1598524859,1.9627678254,-0.1243708407\C,-0.91186
 78619,0.7908222659,-0.1457037789\C,-1.0560838912,-1.75580244,-0.028212
 4474\C,-0.7462935051,-2.7321813392,-0.9818108579\C,-1.4155662466,-3.95
 3650117,-0.9831633089\C,-2.3964749732,-4.2250489639,-0.0332105211\C,-2
 .6940266167,-3.2509295294,0.9150520709\C,-2.041103853,-2.0247471253,0.
 9294157977\H,1.5809691148,-1.4594810927,0.2588764898\H,1.8079182058,2.
 8176238676,0.0502748991\H,-0.656627019,2.9174941914,-0.2391298785\H,0.
 0085627968,-2.5274414539,-1.731898531\H,-1.1753773445,-4.7006124811,-1
 .7308889141\H,-2.9213931399,-5.1714866735,-0.0254876619\H,-2.291160621
 5,-1.2902472144,1.6832476575\Cl,-2.6451311971,0.9417383438,-0.40064955
 57\Cl,3.575614083,0.5759028584,0.3582783451\Cl,-3.9220063296,-3.580022
 1148,2.1308867068\\Version=EM64L-G16RevB.01\State=1-A\HF=-1842.2853012
 \RMSD=6.633e-09\RMSF=1.368e-05\Dipole=0.3661376,0.0333958,-0.4652959\Q
 uadrupole=-6.6788656,7.9613611,-1.2824954,-0.3142097,0.0277621,3.75964
 85\PG=C01 [X(C12H7Cl3)]\\@


 A FOOL CAN ASK MORE QUESTIONS THAN
 A WISE MAN CAN ANSWER.
 Job cpu time:       0 days 12 hours 18 minutes 35.8 seconds.
 Elapsed time:       0 days  3 hours 36 minutes 30.5 seconds.
 File lengths (MBytes):  RWF=    105 Int=      0 D2E=      0 Chk=     15 Scr=      1
 Normal termination of Gaussian 16 at Tue Mar 15 04:13:03 2022.
