 Entering Gaussian System, Link 0=g16
 Input=2,3prime,4,5,5prime-Pentachlorobiphenyl.gjf
 Output=2,3prime,4,5,5prime-Pentachlorobiphenyl.log
 Initial command:
 /home/apps/g16/l1.exe "./Gau-171252.inp" -scrdir="./"
 Entering Link 1 = /home/apps/g16/l1.exe PID=    171253.
  
 Copyright (c) 1988-2017, Gaussian, Inc.  All Rights Reserved.
  
 This is part of the Gaussian(R) 16 program.  It is based on
 the Gaussian(R) 09 system (copyright 2009, Gaussian, Inc.),
 the Gaussian(R) 03 system (copyright 2003, Gaussian, Inc.),
 the Gaussian(R) 98 system (copyright 1998, Gaussian, Inc.),
 the Gaussian(R) 94 system (copyright 1995, Gaussian, Inc.),
 the Gaussian 92(TM) system (copyright 1992, Gaussian, Inc.),
 the Gaussian 90(TM) system (copyright 1990, Gaussian, Inc.),
 the Gaussian 88(TM) system (copyright 1988, Gaussian, Inc.),
 the Gaussian 86(TM) system (copyright 1986, Carnegie Mellon
 University), and the Gaussian 82(TM) system (copyright 1983,
 Carnegie Mellon University). Gaussian is a federally registered
 trademark of Gaussian, Inc.
  
 This software contains proprietary and confidential information,
 including trade secrets, belonging to Gaussian, Inc.
  
 This software is provided under written license and may be
 used, copied, transmitted, or stored only in accord with that
 written license.
  
 The following legend is applicable only to US Government
 contracts under FAR:
  
                    RESTRICTED RIGHTS LEGEND
  
 Use, reproduction and disclosure by the US Government is
 subject to restrictions as set forth in subparagraphs (a)
 and (c) of the Commercial Computer Software - Restricted
 Rights clause in FAR 52.227-19.
  
 Gaussian, Inc.
 340 Quinnipiac St., Bldg. 40, Wallingford CT 06492
  
  
 ---------------------------------------------------------------
 Warning -- This program may not be used in any manner that
 competes with the business of Gaussian, Inc. or will provide
 assistance to any competitor of Gaussian, Inc.  The licensee
 of this program is prohibited from giving any competitor of
 Gaussian, Inc. access to this program.  By using this program,
 the user acknowledges that Gaussian, Inc. is engaged in the
 business of creating and licensing software in the field of
 computational chemistry and represents and warrants to the
 licensee that it is not a competitor of Gaussian, Inc. and that
 it will not use this program in any manner prohibited above.
 ---------------------------------------------------------------
  

 Cite this work as:
 Gaussian 16, Revision B.01,
 M. J. Frisch, G. W. Trucks, H. B. Schlegel, G. E. Scuseria, 
 M. A. Robb, J. R. Cheeseman, G. Scalmani, V. Barone, 
 G. A. Petersson, H. Nakatsuji, X. Li, M. Caricato, A. V. Marenich, 
 J. Bloino, B. G. Janesko, R. Gomperts, B. Mennucci, H. P. Hratchian, 
 J. V. Ortiz, A. F. Izmaylov, J. L. Sonnenberg, D. Williams-Young, 
 F. Ding, F. Lipparini, F. Egidi, J. Goings, B. Peng, A. Petrone, 
 T. Henderson, D. Ranasinghe, V. G. Zakrzewski, J. Gao, N. Rega, 
 G. Zheng, W. Liang, M. Hada, M. Ehara, K. Toyota, R. Fukuda, 
 J. Hasegawa, M. Ishida, T. Nakajima, Y. Honda, O. Kitao, H. Nakai, 
 T. Vreven, K. Throssell, J. A. Montgomery, Jr., J. E. Peralta, 
 F. Ogliaro, M. J. Bearpark, J. J. Heyd, E. N. Brothers, K. N. Kudin, 
 V. N. Staroverov, T. A. Keith, R. Kobayashi, J. Normand, 
 K. Raghavachari, A. P. Rendell, J. C. Burant, S. S. Iyengar, 
 J. Tomasi, M. Cossi, J. M. Millam, M. Klene, C. Adamo, R. Cammi, 
 J. W. Ochterski, R. L. Martin, K. Morokuma, O. Farkas, 
 J. B. Foresman, and D. J. Fox, Gaussian, Inc., Wallingford CT, 2016.
 
 ******************************************
 Gaussian 16:  EM64L-G16RevB.01 20-Dec-2017
                 3-Apr-2022 
 ******************************************
 %mem=32GB
 %nprocshared=16
 Will use up to   16 processors via shared memory.
 --------------------------------
 # opt b3lyp/6-311+g(d,p) scf=xqc
 --------------------------------
 1/18=20,19=15,26=3,38=1/1,3;
 2/9=110,12=2,17=6,18=5,40=1/2;
 3/5=4,6=6,7=111,11=2,25=1,30=1,71=1,74=-5/1,2,3;
 4//1;
 5/5=2,8=3,13=1,38=5/2,8;
 6/7=2,8=2,9=2,10=2,28=1/1;
 7//1,2,3,16;
 1/18=20,19=15,26=3/3(2);
 2/9=110/2;
 99//99;
 2/9=110/2;
 3/5=4,6=6,7=111,11=2,25=1,30=1,71=1,74=-5/1,2,3;
 4/5=5,16=3,69=1/1;
 5/5=2,8=3,13=1,38=5/2,8;
 7//1,2,3,16;
 1/18=20,19=15,26=3/3(-5);
 2/9=110/2;
 6/7=2,8=2,9=2,10=2,19=2,28=1/1;
 99/9=1/99;
 -------------------
 Title Card Required
 -------------------
 Symbolic Z-matrix:
 Charge =  0 Multiplicity = 1
 C                     1.19832  -0.04767  -0.00285 
 C                     2.5307   -0.01779  -0.4362 
 C                     3.23859   1.19166  -0.44227 
 C                     2.61411   2.37123  -0.015 
 C                     1.28172   2.34134   0.41835 
 C                     0.57383   1.13189   0.42442 
 C                     0.42041  -1.37674   0.00382 
 C                     1.0449   -2.5563   -0.42345 
 C                     0.33701  -3.76576  -0.41738 
 C                    -0.99537  -3.79564   0.01597 
 C                    -1.61986  -2.61608   0.44325 
 C                    -0.91197  -1.40663   0.43717 
 H                     3.00751  -0.91841  -0.76243 
 H                     3.1546    3.29467  -0.01963 
 H                    -0.44347   1.10907   0.75529 
 H                     2.0622   -2.53349  -0.75432 
 H                    -2.63716  -2.6389    0.77412 
 Cl                   -1.69625   0.07477   0.97378 
 Cl                    0.49744   3.82275   0.95496 
 Cl                   -1.88441  -5.31458   0.0236 
 Cl                    1.12129  -5.24716  -0.95399 
 Cl                    4.91191   1.2292   -0.9865 
 

 GradGradGradGradGradGradGradGradGradGradGradGradGradGradGradGradGradGrad
 Berny optimization.
 Initialization pass.
                           ----------------------------
                           !    Initial Parameters    !
                           ! (Angstroms and Degrees)  !
 --------------------------                            --------------------------
 ! Name  Definition              Value          Derivative Info.                !
 --------------------------------------------------------------------------------
 ! R1    R(1,2)                  1.4014         estimate D2E/DX2                !
 ! R2    R(1,6)                  1.4014         estimate D2E/DX2                !
 ! R3    R(1,7)                  1.54           estimate D2E/DX2                !
 ! R4    R(2,3)                  1.4014         estimate D2E/DX2                !
 ! R5    R(2,13)                 1.07           estimate D2E/DX2                !
 ! R6    R(3,4)                  1.4014         estimate D2E/DX2                !
 ! R7    R(3,22)                 1.76           estimate D2E/DX2                !
 ! R8    R(4,5)                  1.4014         estimate D2E/DX2                !
 ! R9    R(4,14)                 1.07           estimate D2E/DX2                !
 ! R10   R(5,6)                  1.4014         estimate D2E/DX2                !
 ! R11   R(5,19)                 1.76           estimate D2E/DX2                !
 ! R12   R(6,15)                 1.07           estimate D2E/DX2                !
 ! R13   R(7,8)                  1.4014         estimate D2E/DX2                !
 ! R14   R(7,12)                 1.4014         estimate D2E/DX2                !
 ! R15   R(8,9)                  1.4014         estimate D2E/DX2                !
 ! R16   R(8,16)                 1.07           estimate D2E/DX2                !
 ! R17   R(9,10)                 1.4014         estimate D2E/DX2                !
 ! R18   R(9,21)                 1.76           estimate D2E/DX2                !
 ! R19   R(10,11)                1.4014         estimate D2E/DX2                !
 ! R20   R(10,20)                1.76           estimate D2E/DX2                !
 ! R21   R(11,12)                1.4014         estimate D2E/DX2                !
 ! R22   R(11,17)                1.07           estimate D2E/DX2                !
 ! R23   R(12,18)                1.76           estimate D2E/DX2                !
 ! A1    A(2,1,6)              120.0            estimate D2E/DX2                !
 ! A2    A(2,1,7)              120.0            estimate D2E/DX2                !
 ! A3    A(6,1,7)              120.0            estimate D2E/DX2                !
 ! A4    A(1,2,3)              120.0            estimate D2E/DX2                !
 ! A5    A(1,2,13)             120.0            estimate D2E/DX2                !
 ! A6    A(3,2,13)             120.0            estimate D2E/DX2                !
 ! A7    A(2,3,4)              120.0            estimate D2E/DX2                !
 ! A8    A(2,3,22)             120.0            estimate D2E/DX2                !
 ! A9    A(4,3,22)             120.0            estimate D2E/DX2                !
 ! A10   A(3,4,5)              120.0            estimate D2E/DX2                !
 ! A11   A(3,4,14)             120.0            estimate D2E/DX2                !
 ! A12   A(5,4,14)             120.0            estimate D2E/DX2                !
 ! A13   A(4,5,6)              120.0            estimate D2E/DX2                !
 ! A14   A(4,5,19)             120.0            estimate D2E/DX2                !
 ! A15   A(6,5,19)             120.0            estimate D2E/DX2                !
 ! A16   A(1,6,5)              120.0            estimate D2E/DX2                !
 ! A17   A(1,6,15)             120.0            estimate D2E/DX2                !
 ! A18   A(5,6,15)             120.0            estimate D2E/DX2                !
 ! A19   A(1,7,8)              120.0            estimate D2E/DX2                !
 ! A20   A(1,7,12)             120.0            estimate D2E/DX2                !
 ! A21   A(8,7,12)             120.0            estimate D2E/DX2                !
 ! A22   A(7,8,9)              120.0            estimate D2E/DX2                !
 ! A23   A(7,8,16)             120.0            estimate D2E/DX2                !
 ! A24   A(9,8,16)             120.0            estimate D2E/DX2                !
 ! A25   A(8,9,10)             120.0            estimate D2E/DX2                !
 ! A26   A(8,9,21)             120.0            estimate D2E/DX2                !
 ! A27   A(10,9,21)            120.0            estimate D2E/DX2                !
 ! A28   A(9,10,11)            120.0            estimate D2E/DX2                !
 ! A29   A(9,10,20)            120.0            estimate D2E/DX2                !
 ! A30   A(11,10,20)           120.0            estimate D2E/DX2                !
 ! A31   A(10,11,12)           120.0            estimate D2E/DX2                !
 ! A32   A(10,11,17)           120.0            estimate D2E/DX2                !
 ! A33   A(12,11,17)           120.0            estimate D2E/DX2                !
 ! A34   A(7,12,11)            120.0            estimate D2E/DX2                !
 ! A35   A(7,12,18)            120.0            estimate D2E/DX2                !
 ! A36   A(11,12,18)           120.0            estimate D2E/DX2                !
 ! D1    D(6,1,2,3)              0.0001         estimate D2E/DX2                !
 ! D2    D(6,1,2,13)           180.0            estimate D2E/DX2                !
 ! D3    D(7,1,2,3)           -180.0            estimate D2E/DX2                !
 ! D4    D(7,1,2,13)            -0.0001         estimate D2E/DX2                !
 ! D5    D(2,1,6,5)             -0.0001         estimate D2E/DX2                !
 ! D6    D(2,1,6,15)           180.0            estimate D2E/DX2                !
 ! D7    D(7,1,6,5)            180.0            estimate D2E/DX2                !
 ! D8    D(7,1,6,15)             0.0            estimate D2E/DX2                !
 ! D9    D(2,1,7,8)             -0.0001         estimate D2E/DX2                !
 ! D10   D(2,1,7,12)           179.9998         estimate D2E/DX2                !
 ! D11   D(6,1,7,8)            179.9999         estimate D2E/DX2                !
 ! D12   D(6,1,7,12)            -0.0002         estimate D2E/DX2                !
 ! D13   D(1,2,3,4)              0.0            estimate D2E/DX2                !
 ! D14   D(1,2,3,22)           180.0            estimate D2E/DX2                !
 ! D15   D(13,2,3,4)          -179.9999         estimate D2E/DX2                !
 ! D16   D(13,2,3,22)            0.0001         estimate D2E/DX2                !
 ! D17   D(2,3,4,5)             -0.0001         estimate D2E/DX2                !
 ! D18   D(2,3,4,14)           180.0            estimate D2E/DX2                !
 ! D19   D(22,3,4,5)           179.9999         estimate D2E/DX2                !
 ! D20   D(22,3,4,14)            0.0            estimate D2E/DX2                !
 ! D21   D(3,4,5,6)              0.0001         estimate D2E/DX2                !
 ! D22   D(3,4,5,19)          -179.9999         estimate D2E/DX2                !
 ! D23   D(14,4,5,6)          -180.0            estimate D2E/DX2                !
 ! D24   D(14,4,5,19)            0.0            estimate D2E/DX2                !
 ! D25   D(4,5,6,1)              0.0            estimate D2E/DX2                !
 ! D26   D(4,5,6,15)           179.9999         estimate D2E/DX2                !
 ! D27   D(19,5,6,1)           180.0            estimate D2E/DX2                !
 ! D28   D(19,5,6,15)           -0.0001         estimate D2E/DX2                !
 ! D29   D(1,7,8,9)            179.9999         estimate D2E/DX2                !
 ! D30   D(1,7,8,16)             0.0001         estimate D2E/DX2                !
 ! D31   D(12,7,8,9)             0.0001         estimate D2E/DX2                !
 ! D32   D(12,7,8,16)         -179.9998         estimate D2E/DX2                !
 ! D33   D(1,7,12,11)         -179.9999         estimate D2E/DX2                !
 ! D34   D(1,7,12,18)            0.0            estimate D2E/DX2                !
 ! D35   D(8,7,12,11)           -0.0001         estimate D2E/DX2                !
 ! D36   D(8,7,12,18)          179.9999         estimate D2E/DX2                !
 ! D37   D(7,8,9,10)             0.0            estimate D2E/DX2                !
 ! D38   D(7,8,9,21)           180.0            estimate D2E/DX2                !
 ! D39   D(16,8,9,10)          179.9998         estimate D2E/DX2                !
 ! D40   D(16,8,9,21)           -0.0002         estimate D2E/DX2                !
 ! D41   D(8,9,10,11)            0.0            estimate D2E/DX2                !
 ! D42   D(8,9,10,20)         -179.9999         estimate D2E/DX2                !
 ! D43   D(21,9,10,11)         180.0            estimate D2E/DX2                !
 ! D44   D(21,9,10,20)           0.0001         estimate D2E/DX2                !
 ! D45   D(9,10,11,12)           0.0            estimate D2E/DX2                !
 ! D46   D(9,10,11,17)        -179.9998         estimate D2E/DX2                !
 ! D47   D(20,10,11,12)        179.9999         estimate D2E/DX2                !
 ! D48   D(20,10,11,17)          0.0001         estimate D2E/DX2                !
 ! D49   D(10,11,12,7)           0.0            estimate D2E/DX2                !
 ! D50   D(10,11,12,18)       -179.9999         estimate D2E/DX2                !
 ! D51   D(17,11,12,7)         179.9999         estimate D2E/DX2                !
 ! D52   D(17,11,12,18)         -0.0001         estimate D2E/DX2                !
 --------------------------------------------------------------------------------
 Trust Radius=3.00D-01 FncErr=1.00D-07 GrdErr=1.00D-06 EigMax=2.50D+02 EigMin=1.00D-04
 Number of steps in this run=    121 maximum allowed number of steps=    132.
 GradGradGradGradGradGradGradGradGradGradGradGradGradGradGradGradGradGrad

                          Input orientation:                          
 ---------------------------------------------------------------------
 Center     Atomic      Atomic             Coordinates (Angstroms)
 Number     Number       Type             X           Y           Z
 ---------------------------------------------------------------------
      1          6           0        1.198318   -0.047672   -0.002851
      2          6           0        2.530699   -0.017786   -0.436198
      3          6           0        3.238592    1.191665   -0.442270
      4          6           0        2.614105    2.371230   -0.014995
      5          6           0        1.281723    2.341344    0.418350
      6          6           0        0.573830    1.131893    0.424422
      7          6           0        0.420413   -1.376740    0.003823
      8          6           0        1.044900   -2.556305   -0.423452
      9          6           0        0.337007   -3.765756   -0.417378
     10          6           0       -0.995373   -3.795642    0.015972
     11          6           0       -1.619860   -2.616077    0.443247
     12          6           0       -0.911967   -1.406626    0.437173
     13          1           0        3.007509   -0.918411   -0.762430
     14          1           0        3.154598    3.294672   -0.019631
     15          1           0       -0.443473    1.109075    0.755291
     16          1           0        2.062203   -2.533486   -0.754322
     17          1           0       -2.637161   -2.638897    0.774122
     18         17           0       -1.696252    0.074774    0.973785
     19         17           0        0.497437    3.822745    0.954955
     20         17           0       -1.884405   -5.314577    0.023603
     21         17           0        1.121293   -5.247156   -0.953987
     22         17           0        4.911913    1.229198   -0.986504
 ---------------------------------------------------------------------
                    Distance matrix (angstroms):
                    1          2          3          4          5
     1  C    0.000000
     2  C    1.401400   0.000000
     3  C    2.427296   1.401400   0.000000
     4  C    2.802800   2.427296   1.401400   0.000000
     5  C    2.427296   2.802800   2.427296   1.401400   0.000000
     6  C    1.401400   2.427296   2.802800   2.427296   1.401400
     7  C    1.540000   2.548270   3.838989   4.342800   3.838989
     8  C    2.548270   2.941400   4.342800   5.187469   4.975106
     9  C    3.838989   4.342800   5.744200   6.558176   6.235992
    10  C    4.342800   5.187469   6.558176   7.145600   6.558176
    11  C    3.838989   4.975106   6.235992   6.558176   5.744200
    12  C    2.548270   3.813607   4.975106   5.187469   4.342800
    13  H    2.146700   1.070000   2.146700   3.396345   3.872800
    14  H    3.872800   3.396345   2.146700   1.070000   2.146700
    15  H    2.146700   3.396345   3.872800   3.396345   2.146700
    16  H    2.736837   2.578650   3.918930   4.990735   5.074276
    17  H    4.693509   5.919617   7.118798   7.300676   6.347206
    18  Cl   3.057342   4.456874   5.254079   4.983028   3.783409
    19  Cl   4.048303   4.562800   4.048303   2.743718   1.760000
    20  Cl   6.102800   6.910901   8.294174   8.905600   8.294174
    21  Cl   5.286324   5.440665   6.797295   7.819846   7.713260
    22  Cl   4.048303   2.743718   1.760000   2.743718   4.048303
                    6          7          8          9         10
     6  C    0.000000
     7  C    2.548270   0.000000
     8  C    3.813607   1.401400   0.000000
     9  C    4.975106   2.427296   1.401400   0.000000
    10  C    5.187469   2.802800   2.427296   1.401400   0.000000
    11  C    4.342800   2.427296   2.802800   2.427296   1.401400
    12  C    2.941400   1.401400   2.427296   2.802800   2.427296
    13  H    3.396345   2.736837   2.578650   3.918930   4.990735
    14  H    3.396345   5.412800   6.232802   7.612271   8.215600
    15  H    1.070000   2.736837   4.127917   5.074276   4.990735
    16  H    4.127917   2.146700   1.070000   2.146700   3.396345
    17  H    4.965039   3.396345   3.872800   3.396345   2.146700
    18  Cl   2.563702   2.743718   4.048303   4.562800   4.048303
    19  Cl   2.743718   5.286324   6.549198   7.713260   7.819846
    20  Cl   6.910901   4.562800   4.048303   2.743718   1.760000
    21  Cl   6.549198   4.048303   2.743718   1.760000   2.743718
    22  Cl   4.562800   5.286324   5.440665   6.797295   7.819846
                   11         12         13         14         15
    11  C    0.000000
    12  C    1.401400   0.000000
    13  H    5.074276   4.127917   0.000000
    14  H    7.612271   6.232802   4.280590   0.000000
    15  H    3.918930   2.578650   4.280590   4.280590   0.000000
    16  H    3.872800   3.396345   1.871400   5.974992   4.671787
    17  H    1.070000   2.146700   6.097816   8.329571   4.342800
    18  Cl   2.743718   1.760000   5.111382   5.906383   1.639199
    19  Cl   6.797295   5.440665   5.632800   2.879094   2.879094
    20  Cl   2.743718   4.048303   6.623817   9.975600   6.623817
    21  Cl   4.048303   4.562800   4.725732   8.830073   6.765486
    22  Cl   7.713260   6.549198   2.879094   2.879094   5.632800
                   16         17         18         19         20
    16  H    0.000000
    17  H    4.942800   0.000000
    18  Cl   4.890332   2.879094   0.000000
    19  Cl   6.765486   7.184095   4.342800   0.000000
    20  Cl   4.890332   2.879094   5.475705   9.488480   0.000000
    21  Cl   2.879094   4.890332   6.322800   9.289584   3.161400
    22  Cl   4.725732   8.663168   6.988795   5.475705   9.488480
                   21         22
    21  Cl   0.000000
    22  Cl   7.504200   0.000000
 Stoichiometry    C12H5Cl5
 Framework group  C1[X(C12H5Cl5)]
 Deg. of freedom    60
 Full point group                 C1      NOp   1
 Largest Abelian subgroup         C1      NOp   1
 Largest concise Abelian subgroup C1      NOp   1
                         Standard orientation:                         
 ---------------------------------------------------------------------
 Center     Atomic      Atomic             Coordinates (Angstroms)
 Number     Number       Type             X           Y           Z
 ---------------------------------------------------------------------
      1          6           0        0.975858    0.129854    0.000002
      2          6           0        1.510351    1.425322    0.000000
      3          6           0        2.899506    1.610171   -0.000001
      4          6           0        3.754168    0.499552   -0.000002
      5          6           0        3.219675   -0.795916    0.000001
      6          6           0        1.830520   -0.980766    0.000003
      7          6           0       -0.550687   -0.073278    0.000002
      8          6           0       -1.405349    1.037341    0.000003
      9          6           0       -2.794504    0.852492    0.000002
     10          6           0       -3.328997   -0.442977    0.000001
     11          6           0       -2.474336   -1.553596   -0.000001
     12          6           0       -1.085180   -1.368746   -0.000000
     13          1           0        0.857798    2.273304   -0.000001
     14          1           0        4.814819    0.640689   -0.000004
     15          1           0        1.422422   -1.969885    0.000004
     16          1           0       -0.997251    2.026460    0.000002
     17          1           0       -2.882433   -2.542715   -0.000005
     18         17           0       -0.011821   -2.763558   -0.000004
     19         17           0        4.293034   -2.190728    0.000004
     20         17           0       -5.073620   -0.675127   -0.000003
     21         17           0       -3.867863    2.247304    0.000004
     22         17           0        3.570770    3.237134   -0.000004
 ---------------------------------------------------------------------
 Rotational constants (GHZ):           0.4329310           0.1502216           0.1115241
 Standard basis: 6-311+G(d,p) (5D, 7F)
 There are   461 symmetry adapted cartesian basis functions of A   symmetry.
 There are   444 symmetry adapted basis functions of A   symmetry.
   444 basis functions,   737 primitive gaussians,   461 cartesian basis functions
    81 alpha electrons       81 beta electrons
       nuclear repulsion energy      1662.8423984229 Hartrees.
 NAtoms=   22 NActive=   22 NUniq=   22 SFac= 1.00D+00 NAtFMM=   60 NAOKFM=F Big=F
 Integral buffers will be    131072 words long.
 Raffenetti 2 integral format.
 Two-electron integral symmetry is turned on.
 One-electron integrals computed using PRISM.
 NBasis=   444 RedAO= T EigKep=  1.50D-06  NBF=   444
 NBsUse=   438 1.00D-06 EigRej=  8.30D-07 NBFU=   438
 ExpMin= 4.38D-02 ExpMax= 1.06D+05 ExpMxC= 3.62D+03 IAcc=3 IRadAn=         5 AccDes= 0.00D+00
 Harris functional with IExCor=  402 and IRadAn=       5 diagonalized for initial guess.
 HarFok:  IExCor=  402 AccDes= 0.00D+00 IRadAn=         5 IDoV= 1 UseB2=F ITyADJ=14
 ICtDFT=  3500011 ScaDFX=  1.000000  1.000000  1.000000  1.000000
 FoFCou: FMM=F IPFlag=           0 FMFlag=      100000 FMFlg1=           0
         NFxFlg=           0 DoJE=T BraDBF=F KetDBF=T FulRan=T
         wScrn=  0.000000 ICntrl=       500 IOpCl=  0 I1Cent=   200000004 NGrid=           0
         NMat0=    1 NMatS0=      1 NMatT0=    0 NMatD0=    1 NMtDS0=    0 NMtDT0=    0
 Petite list used in FoFCou.
 Requested convergence on RMS density matrix=1.00D-08 within  32 cycles.
 Requested convergence on MAX density matrix=1.00D-06.
 Requested convergence on             energy=1.00D-06.
 No special actions if energy rises.
 SCF Done:  E(RB3LYP) =  -2761.46091018     A.U. after   17 cycles
            NFock= 17  Conv=0.31D-08     -V/T= 2.0027
 QCSCF skips out because SCF is already converged.

 **********************************************************************

            Population analysis using the SCF Density.

 **********************************************************************

 Orbital symmetries:
       Occupied  (A) (A) (A) (A) (A) (A) (A) (A) (A) (A) (A) (A)
                 (A) (A) (A) (A) (A) (A) (A) (A) (A) (A) (A) (A)
                 (A) (A) (A) (A) (A) (A) (A) (A) (A) (A) (A) (A)
                 (A) (A) (A) (A) (A) (A) (A) (A) (A) (A) (A) (A)
                 (A) (A) (A) (A) (A) (A) (A) (A) (A) (A) (A) (A)
                 (A) (A) (A) (A) (A) (A) (A) (A) (A) (A) (A) (A)
                 (A) (A) (A) (A) (A) (A) (A) (A) (A)
       Virtual   (A) (A) (A) (A) (A) (A) (A) (A) (A) (A) (A) (A)
                 (A) (A) (A) (A) (A) (A) (A) (A) (A) (A) (A) (A)
                 (A) (A) (A) (A) (A) (A) (A) (A) (A) (A) (A) (A)
                 (A) (A) (A) (A) (A) (A) (A) (A) (A) (A) (A) (A)
                 (A) (A) (A) (A) (A) (A) (A) (A) (A) (A) (A) (A)
                 (A) (A) (A) (A) (A) (A) (A) (A) (A) (A) (A) (A)
                 (A) (A) (A) (A) (A) (A) (A) (A) (A) (A) (A) (A)
                 (A) (A) (A) (A) (A) (A) (A) (A) (A) (A) (A) (A)
                 (A) (A) (A) (A) (A) (A) (A) (A) (A) (A) (A) (A)
                 (A) (A) (A) (A) (A) (A) (A) (A) (A) (A) (A) (A)
                 (A) (A) (A) (A) (A) (A) (A) (A) (A) (A) (A) (A)
                 (A) (A) (A) (A) (A) (A) (A) (A) (A) (A) (A) (A)
                 (A) (A) (A) (A) (A) (A) (A) (A) (A) (A) (A) (A)
                 (A) (A) (A) (A) (A) (A) (A) (A) (A) (A) (A) (A)
                 (A) (A) (A) (A) (A) (A) (A) (A) (A) (A) (A) (A)
                 (A) (A) (A) (A) (A) (A) (A) (A) (A) (A) (A) (A)
                 (A) (A) (A) (A) (A) (A) (A) (A) (A) (A) (A) (A)
                 (A) (A) (A) (A) (A) (A) (A) (A) (A) (A) (A) (A)
                 (A) (A) (A) (A) (A) (A) (A) (A) (A) (A) (A) (A)
                 (A) (A) (A) (A) (A) (A) (A) (A) (A) (A) (A) (A)
                 (A) (A) (A) (A) (A) (A) (A) (A) (A) (A) (A) (A)
                 (A) (A) (A) (A) (A) (A) (A) (A) (A) (A) (A) (A)
                 (A) (A) (A) (A) (A) (A) (A) (A) (A) (A) (A) (A)
                 (A) (A) (A) (A) (A) (A) (A) (A) (A) (A) (A) (A)
                 (A) (A) (A) (A) (A) (A) (A) (A) (A) (A) (A) (A)
                 (A) (A) (A) (A) (A) (A) (A) (A) (A) (A) (A) (A)
                 (A) (A) (A) (A) (A) (A) (A) (A) (A) (A) (A) (A)
                 (A) (A) (A) (A) (A) (A) (A) (A) (A) (A) (A) (A)
                 (A) (A) (A) (A) (A) (A) (A) (A) (A) (A) (A) (A)
                 (A) (A) (A) (A) (A) (A) (A) (A) (A)
 The electronic state is 1-A.
 Alpha  occ. eigenvalues -- -101.58578-101.58019-101.57909-101.57150-101.56941
 Alpha  occ. eigenvalues --  -10.28019 -10.27988 -10.27905 -10.26485 -10.26032
 Alpha  occ. eigenvalues --  -10.24217 -10.23141 -10.22952 -10.22765 -10.21130
 Alpha  occ. eigenvalues --  -10.21035 -10.18659  -9.50357  -9.49438  -9.49335
 Alpha  occ. eigenvalues --   -9.48580  -9.48376  -7.26767  -7.25937  -7.25829
 Alpha  occ. eigenvalues --   -7.25803  -7.25791  -7.25056  -7.24914  -7.24857
 Alpha  occ. eigenvalues --   -7.24844  -7.24814  -7.24756  -7.24056  -7.24024
 Alpha  occ. eigenvalues --   -7.23857  -7.23823  -0.95210  -0.92639  -0.91573
 Alpha  occ. eigenvalues --   -0.88702  -0.88010  -0.86198  -0.84427  -0.79698
 Alpha  occ. eigenvalues --   -0.76851  -0.75505  -0.75027  -0.67115  -0.64868
 Alpha  occ. eigenvalues --   -0.62654  -0.61254  -0.55485  -0.54311  -0.53731
 Alpha  occ. eigenvalues --   -0.50835  -0.49522  -0.48957  -0.47323  -0.46441
 Alpha  occ. eigenvalues --   -0.46189  -0.45652  -0.42855  -0.42793  -0.42107
 Alpha  occ. eigenvalues --   -0.41224  -0.40509  -0.39582  -0.37718  -0.37129
 Alpha  occ. eigenvalues --   -0.35621  -0.35379  -0.33700  -0.33595  -0.32975
 Alpha  occ. eigenvalues --   -0.32879  -0.30033  -0.29835  -0.28093  -0.26518
 Alpha  occ. eigenvalues --   -0.25950
 Alpha virt. eigenvalues --   -0.08155  -0.06592  -0.04295  -0.04038  -0.01901
 Alpha virt. eigenvalues --   -0.01600  -0.01309  -0.00670   0.00609   0.01419
 Alpha virt. eigenvalues --    0.01444   0.01802   0.03056   0.03504   0.03678
 Alpha virt. eigenvalues --    0.04468   0.04843   0.05318   0.05871   0.06275
 Alpha virt. eigenvalues --    0.06738   0.07766   0.07786   0.08008   0.08271
 Alpha virt. eigenvalues --    0.08778   0.09396   0.09799   0.10021   0.10152
 Alpha virt. eigenvalues --    0.10652   0.10674   0.10972   0.11366   0.12210
 Alpha virt. eigenvalues --    0.12339   0.12836   0.13111   0.13241   0.13612
 Alpha virt. eigenvalues --    0.13680   0.14439   0.14951   0.15396   0.15552
 Alpha virt. eigenvalues --    0.16351   0.16692   0.17163   0.17700   0.18306
 Alpha virt. eigenvalues --    0.18356   0.18572   0.18660   0.18878   0.19888
 Alpha virt. eigenvalues --    0.20165   0.20433   0.20595   0.20687   0.21161
 Alpha virt. eigenvalues --    0.22137   0.22312   0.22493   0.23087   0.23332
 Alpha virt. eigenvalues --    0.23589   0.24223   0.24327   0.24509   0.25562
 Alpha virt. eigenvalues --    0.26627   0.27257   0.27604   0.27973   0.28696
 Alpha virt. eigenvalues --    0.29499   0.30033   0.30737   0.31301   0.31879
 Alpha virt. eigenvalues --    0.32204   0.32352   0.34389   0.34503   0.35090
 Alpha virt. eigenvalues --    0.36433   0.36763   0.39259   0.40990   0.42697
 Alpha virt. eigenvalues --    0.42951   0.43254   0.43608   0.44241   0.44535
 Alpha virt. eigenvalues --    0.44923   0.45001   0.46093   0.46462   0.46517
 Alpha virt. eigenvalues --    0.46962   0.47166   0.48370   0.49125   0.50225
 Alpha virt. eigenvalues --    0.50819   0.51732   0.53038   0.53250   0.54036
 Alpha virt. eigenvalues --    0.55054   0.56122   0.56708   0.56945   0.58457
 Alpha virt. eigenvalues --    0.58546   0.58653   0.59642   0.60480   0.60500
 Alpha virt. eigenvalues --    0.60877   0.62731   0.63080   0.64100   0.64380
 Alpha virt. eigenvalues --    0.64995   0.65950   0.67250   0.67318   0.68046
 Alpha virt. eigenvalues --    0.68414   0.70789   0.72292   0.73340   0.76308
 Alpha virt. eigenvalues --    0.78006   0.80122   0.80808   0.82580   0.82669
 Alpha virt. eigenvalues --    0.82931   0.83712   0.83760   0.83877   0.84109
 Alpha virt. eigenvalues --    0.84516   0.84731   0.84862   0.85490   0.85693
 Alpha virt. eigenvalues --    0.85953   0.86451   0.86528   0.87251   0.87766
 Alpha virt. eigenvalues --    0.88514   0.89191   0.89886   0.90051   0.90718
 Alpha virt. eigenvalues --    0.91567   0.92444   0.93386   0.93704   0.94369
 Alpha virt. eigenvalues --    0.94444   0.94870   0.95224   0.97071   0.97457
 Alpha virt. eigenvalues --    0.97875   0.98384   0.99603   1.00349   1.01854
 Alpha virt. eigenvalues --    1.05077   1.05229   1.06178   1.07678   1.08410
 Alpha virt. eigenvalues --    1.10338   1.12080   1.12750   1.14052   1.19013
 Alpha virt. eigenvalues --    1.20265   1.20474   1.22021   1.22219   1.23608
 Alpha virt. eigenvalues --    1.24877   1.25746   1.26269   1.28299   1.29260
 Alpha virt. eigenvalues --    1.29958   1.31006   1.32331   1.34380   1.36467
 Alpha virt. eigenvalues --    1.39573   1.43346   1.45252   1.47733   1.49083
 Alpha virt. eigenvalues --    1.53338   1.53488   1.55882   1.56777   1.58341
 Alpha virt. eigenvalues --    1.58546   1.60199   1.60375   1.61569   1.65146
 Alpha virt. eigenvalues --    1.67153   1.67478   1.67842   1.71233   1.74517
 Alpha virt. eigenvalues --    1.78847   1.80406   1.81160   1.81510   1.85139
 Alpha virt. eigenvalues --    1.85946   1.87441   1.88178   1.91980   1.92133
 Alpha virt. eigenvalues --    1.93077   1.93942   1.96275   1.96284   1.97641
 Alpha virt. eigenvalues --    1.99138   2.00411   2.02606   2.04680   2.06320
 Alpha virt. eigenvalues --    2.06636   2.08879   2.12078   2.17699   2.18134
 Alpha virt. eigenvalues --    2.21534   2.23048   2.24071   2.25022   2.25759
 Alpha virt. eigenvalues --    2.26449   2.27532   2.28133   2.31857   2.32260
 Alpha virt. eigenvalues --    2.34036   2.34171   2.37908   2.40294   2.40938
 Alpha virt. eigenvalues --    2.43338   2.44741   2.47042   2.51019   2.51165
 Alpha virt. eigenvalues --    2.53854   2.54642   2.56449   2.57829   2.59431
 Alpha virt. eigenvalues --    2.59539   2.60601   2.62505   2.63043   2.68204
 Alpha virt. eigenvalues --    2.69732   2.71295   2.71974   2.73354   2.74160
 Alpha virt. eigenvalues --    2.74332   2.74873   2.77752   2.79596   2.80592
 Alpha virt. eigenvalues --    2.80898   2.82300   2.84681   2.90252   2.92550
 Alpha virt. eigenvalues --    2.94122   3.01703   3.04168   3.05626   3.06322
 Alpha virt. eigenvalues --    3.11098   3.11635   3.16460   3.17445   3.21045
 Alpha virt. eigenvalues --    3.21954   3.25583   3.32258   3.33536   3.39603
 Alpha virt. eigenvalues --    3.46349   3.50604   3.58370   3.62091   3.72537
 Alpha virt. eigenvalues --    3.73433   3.80155   3.83548   3.90021   4.09401
 Alpha virt. eigenvalues --    4.13589   4.18515   4.44962   4.78409   4.82640
 Alpha virt. eigenvalues --    9.73477   9.76084   9.78243   9.79057   9.87141
 Alpha virt. eigenvalues --   23.37368  23.54244  23.78926  23.84163  23.86321
 Alpha virt. eigenvalues --   23.88248  23.94604  24.00926  24.02295  24.03748
 Alpha virt. eigenvalues --   24.06862  24.11182  25.76899  25.80493  25.81411
 Alpha virt. eigenvalues --   25.83923  25.85790  26.08637  26.09922  26.13773
 Alpha virt. eigenvalues --   26.19260  26.49880  26.58627  26.61458  26.66815
 Alpha virt. eigenvalues --   26.75256  26.81984 215.72335 215.75040 215.77620
 Alpha virt. eigenvalues --  215.78616 215.89615
          Condensed to atoms (all electrons):
               1          2          3          4          5          6
     1  C   17.964601   0.657216  -3.673841   0.610462  -3.981834   0.104428
     2  C    0.657216  11.452457   2.543250  -6.496931   0.218859   1.376059
     3  C   -3.673841   2.543250  17.429148  -4.805055  -3.437355   1.388585
     4  C    0.610462  -6.496931  -4.805055  29.510448  -3.303914  -8.887683
     5  C   -3.981834   0.218859  -3.437355  -3.303914  18.374904  -0.006329
     6  C    0.104428   1.376059   1.388585  -8.887683  -0.006329  15.799115
     7  C    5.536936   0.091601  -1.350564  -1.353620  -2.105149  -0.036181
     8  C   -1.992755  -0.713444  -0.347516   0.342461  -1.536383  -1.787590
     9  C   -2.384557   0.714240   0.296049  -0.196474  -0.525707  -1.117305
    10  C   -0.050586  -0.247833  -0.049691   0.093020   0.057765   0.313228
    11  C   -4.507109  -1.875743  -0.653056   0.417536   2.199495   0.589733
    12  C   -0.747668  -2.287474  -1.527112   0.980192   0.676245  -1.159503
    13  H    0.056531   0.282271  -0.164765   0.084988   0.002833  -0.050665
    14  H    0.052674   0.049608  -0.005334   0.126550   0.040600   0.072590
    15  H   -0.305801  -0.092689  -0.031086   0.192152   0.240184   0.223002
    16  H    0.065616   0.090270   0.013555  -0.008885  -0.000270   0.031139
    17  H    0.019528   0.003557   0.000253   0.000119  -0.000715   0.000295
    18  Cl   0.690832   0.191717   0.142756  -0.120584  -0.965382  -0.625019
    19  Cl  -0.347522   0.166706   0.105918  -0.331468  -0.834918   0.710245
    20  Cl  -0.028601  -0.037527  -0.003106  -0.000756  -0.000221  -0.014066
    21  Cl  -0.208894  -0.028513  -0.006916  -0.006131  -0.005853  -0.075023
    22  Cl  -0.490273   0.535398  -0.626730  -0.236752   0.037973   0.219043
               7          8          9         10         11         12
     1  C    5.536936  -1.992755  -2.384557  -0.050586  -4.507109  -0.747668
     2  C    0.091601  -0.713444   0.714240  -0.247833  -1.875743  -2.287474
     3  C   -1.350564  -0.347516   0.296049  -0.049691  -0.653056  -1.527112
     4  C   -1.353620   0.342461  -0.196474   0.093020   0.417536   0.980192
     5  C   -2.105149  -1.536383  -0.525707   0.057765   2.199495   0.676245
     6  C   -0.036181  -1.787590  -1.117305   0.313228   0.589733  -1.159503
     7  C   17.828766  -0.451502  -2.758166   0.307713  -5.819061  -2.504881
     8  C   -0.451502  12.412773   4.417078  -5.744151   0.030491   0.696570
     9  C   -2.758166   4.417078  20.321481  -5.792271  -2.242475  -4.323277
    10  C    0.307713  -5.744151  -5.792271  24.593817   0.224224  -6.218867
    11  C   -5.819061   0.030491  -2.242475   0.224224  19.594901  -1.848592
    12  C   -2.504881   0.696570  -4.323277  -6.218867  -1.848592  24.772746
    13  H    0.055709   0.071897  -0.025440  -0.003801   0.006686   0.028809
    14  H    0.015467   0.003255   0.000355  -0.000018  -0.000161  -0.000692
    15  H   -0.140158  -0.026606  -0.007635   0.049399   0.225905   0.130237
    16  H    0.053971   0.253063  -0.118469   0.048655  -0.039471  -0.052100
    17  H    0.113147  -0.019404  -0.025271   0.052123   0.275708  -0.049115
    18  Cl   0.262523   0.467635   0.233584  -0.669440  -0.648532  -0.466069
    19  Cl  -0.110768  -0.091165  -0.013632  -0.004138   0.007499  -0.021203
    20  Cl   0.018621  -0.124441   0.317394  -0.594247   0.005338  -0.280511
    21  Cl  -0.877409   0.637739  -0.696610  -0.397819   0.458599   0.396143
    22  Cl  -0.124281  -0.073128   0.019998   0.001434  -0.011823  -0.071145
              13         14         15         16         17         18
     1  C    0.056531   0.052674  -0.305801   0.065616   0.019528   0.690832
     2  C    0.282271   0.049608  -0.092689   0.090270   0.003557   0.191717
     3  C   -0.164765  -0.005334  -0.031086   0.013555   0.000253   0.142756
     4  C    0.084988   0.126550   0.192152  -0.008885   0.000119  -0.120584
     5  C    0.002833   0.040600   0.240184  -0.000270  -0.000715  -0.965382
     6  C   -0.050665   0.072590   0.223002   0.031139   0.000295  -0.625019
     7  C    0.055709   0.015467  -0.140158   0.053971   0.113147   0.262523
     8  C    0.071897   0.003255  -0.026606   0.253063  -0.019404   0.467635
     9  C   -0.025440   0.000355  -0.007635  -0.118469  -0.025271   0.233584
    10  C   -0.003801  -0.000018   0.049399   0.048655   0.052123  -0.669440
    11  C    0.006686  -0.000161   0.225905  -0.039471   0.275708  -0.648532
    12  C    0.028809  -0.000692   0.130237  -0.052100  -0.049115  -0.466069
    13  H    0.542077  -0.000265   0.000050   0.003768  -0.000001  -0.000904
    14  H   -0.000265   0.499026  -0.000543  -0.000002  -0.000000   0.000392
    15  H    0.000050  -0.000543   0.685847  -0.000130   0.000050  -0.255760
    16  H    0.003768  -0.000002  -0.000130   0.522280   0.000073   0.000551
    17  H   -0.000001  -0.000000   0.000050   0.000073   0.486747  -0.021780
    18  Cl  -0.000904   0.000392  -0.255760   0.000551  -0.021780  18.195926
    19  Cl   0.000220  -0.006383  -0.036094   0.000119  -0.000013  -0.046209
    20  Cl   0.000151   0.000000   0.000367  -0.000678  -0.005478  -0.026004
    21  Cl   0.000026   0.000001  -0.000037  -0.018307  -0.000590   0.004519
    22  Cl  -0.025210  -0.009063   0.000738   0.000938   0.000000   0.001220
              19         20         21         22
     1  C   -0.347522  -0.028601  -0.208894  -0.490273
     2  C    0.166706  -0.037527  -0.028513   0.535398
     3  C    0.105918  -0.003106  -0.006916  -0.626730
     4  C   -0.331468  -0.000756  -0.006131  -0.236752
     5  C   -0.834918  -0.000221  -0.005853   0.037973
     6  C    0.710245  -0.014066  -0.075023   0.219043
     7  C   -0.110768   0.018621  -0.877409  -0.124281
     8  C   -0.091165  -0.124441   0.637739  -0.073128
     9  C   -0.013632   0.317394  -0.696610   0.019998
    10  C   -0.004138  -0.594247  -0.397819   0.001434
    11  C    0.007499   0.005338   0.458599  -0.011823
    12  C   -0.021203  -0.280511   0.396143  -0.071145
    13  H    0.000220   0.000151   0.000026  -0.025210
    14  H   -0.006383   0.000000   0.000001  -0.009063
    15  H   -0.036094   0.000367  -0.000037   0.000738
    16  H    0.000119  -0.000678  -0.018307   0.000938
    17  H   -0.000013  -0.005478  -0.000590   0.000000
    18  Cl  -0.046209  -0.026004   0.004519   0.001220
    19  Cl  17.462549  -0.000009  -0.000129  -0.014555
    20  Cl  -0.000009  17.404669  -0.168516  -0.000039
    21  Cl  -0.000129  -0.168516  17.459996  -0.000303
    22  Cl  -0.014555  -0.000039  -0.000303  17.423651
 Mulliken charges:
               1
     1  C   -1.039384
     2  C   -0.593057
     3  C    0.762616
     4  C   -0.609675
     5  C    0.855174
     6  C   -1.068095
     7  C   -0.652714
     8  C   -0.424878
     9  C   -0.092891
    10  C    0.031483
    11  C   -0.390091
    12  C   -0.122733
    13  H    0.135038
    14  H    0.161943
    15  H    0.148608
    16  H    0.154315
    17  H    0.170764
    18  Cl   0.654027
    19  Cl   0.404953
    20  Cl   0.537660
    21  Cl   0.534028
    22  Cl   0.442910
 Sum of Mulliken charges =  -0.00000
 Mulliken charges with hydrogens summed into heavy atoms:
               1
     1  C   -1.039384
     2  C   -0.458020
     3  C    0.762616
     4  C   -0.447732
     5  C    0.855174
     6  C   -0.919487
     7  C   -0.652714
     8  C   -0.270563
     9  C   -0.092891
    10  C    0.031483
    11  C   -0.219328
    12  C   -0.122733
    18  Cl   0.654027
    19  Cl   0.404953
    20  Cl   0.537660
    21  Cl   0.534028
    22  Cl   0.442910
 Electronic spatial extent (au):  <R**2>=           8318.8953
 Charge=             -0.0000 electrons
 Dipole moment (field-independent basis, Debye):
    X=             -0.5873    Y=             -0.4394    Z=             -0.0000  Tot=              0.7334
 Quadrupole moment (field-independent basis, Debye-Ang):
   XX=           -140.3121   YY=           -131.6564   ZZ=           -135.7538
   XY=              2.3891   XZ=              0.0000   YZ=              0.0000
 Traceless Quadrupole moment (field-independent basis, Debye-Ang):
   XX=             -4.4047   YY=              4.2510   ZZ=              0.1537
   XY=              2.3891   XZ=              0.0000   YZ=              0.0000
 Octapole moment (field-independent basis, Debye-Ang**2):
  XXX=              7.0979  YYY=             -8.9932  ZZZ=             -0.0000  XYY=            -18.5324
  XXY=             -8.5094  XXZ=             -0.0001  XZZ=             -4.2401  YZZ=             -1.2305
  YYZ=             -0.0000  XYZ=             -0.0000
 Hexadecapole moment (field-independent basis, Debye-Ang**3):
 XXXX=          -7966.5632 YYYY=          -2750.0143 ZZZZ=           -157.6473 XXXY=             27.4560
 XXXZ=              0.0000 YYYX=            -46.6438 YYYZ=              0.0000 ZZZX=              0.0000
 ZZZY=              0.0000 XXYY=          -1802.3873 XXZZ=          -1393.7107 YYZZ=           -508.8536
 XXYZ=              0.0001 YYXZ=              0.0001 ZZXY=             -8.6079
 N-N= 1.662842398423D+03 E-N=-9.861799142527D+03  KE= 2.754158694566D+03
 Calling FoFJK, ICntrl=      2127 FMM=F ISym2X=0 I1Cent= 0 IOpClX= 0 NMat=1 NMatS=1 NMatT=0.
 ***** Axes restored to original set *****
 -------------------------------------------------------------------
 Center     Atomic                   Forces (Hartrees/Bohr)
 Number     Number              X              Y              Z
 -------------------------------------------------------------------
      1        6          -0.009419600   -0.018919237   -0.000449972
      2        6           0.002843077    0.013515198    0.001601734
      3        6          -0.016070387   -0.005273907    0.004304096
      4        6          -0.002752336   -0.000078824    0.000891766
      5        6           0.013349578   -0.019719421   -0.008101525
      6        6           0.039321562    0.032726499   -0.006808547
      7        6           0.018654302    0.035571723    0.000535063
      8        6          -0.022398049   -0.008947157    0.005698908
      9        6           0.005439825    0.002057807   -0.001405776
     10        6          -0.001980109    0.001521318    0.000938158
     11        6           0.009350273    0.003538165   -0.002415868
     12        6           0.004715028   -0.016032386   -0.004564531
     13        1           0.006774824   -0.003054964   -0.002805804
     14        1           0.005173020    0.007481240   -0.000299214
     15        1           0.039933641    0.027143170   -0.008058965
     16        1           0.005124226   -0.003418806   -0.002330412
     17        1          -0.007956612   -0.000869786    0.002457934
     18       17          -0.088242556   -0.061299712    0.017559846
     19       17           0.002233050   -0.003531619   -0.001398922
     20       17           0.000044141    0.009058944    0.001686751
     21       17           0.000387609    0.008144480    0.001401927
     22       17          -0.004524508    0.000387277    0.001563353
 -------------------------------------------------------------------
 Cartesian Forces:  Max     0.088242556 RMS     0.018103420

 GradGradGradGradGradGradGradGradGradGradGradGradGradGradGradGradGradGrad
 Berny optimization.
 FormGI is forming the generalized inverse of G from B-inverse, IUseBI=4.
 Internal  Forces:  Max     0.277874763 RMS     0.050598733
 Search for a local minimum.
 Step number   1 out of a maximum of  121
 All quantities printed in internal units (Hartrees-Bohrs-Radians)
 Mixed Optimization -- RFO/linear search
 Second derivative matrix not updated -- first step.
 ITU=  0
     Eigenvalues ---    0.00237   0.01506   0.01506   0.02070   0.02070
     Eigenvalues ---    0.02070   0.02070   0.02070   0.02070   0.02070
     Eigenvalues ---    0.02070   0.02070   0.02070   0.02070   0.02070
     Eigenvalues ---    0.02070   0.02070   0.02070   0.02070   0.16000
     Eigenvalues ---    0.16000   0.16000   0.16000   0.16000   0.23000
     Eigenvalues ---    0.23478   0.23478   0.23500   0.23980   0.25000
     Eigenvalues ---    0.25000   0.25000   0.25000   0.25000   0.25000
     Eigenvalues ---    0.25000   0.25000   0.28519   0.29539   0.29539
     Eigenvalues ---    0.29539   0.29539   0.29539   0.37230   0.37230
     Eigenvalues ---    0.37230   0.37230   0.37230   0.41465   0.41554
     Eigenvalues ---    0.41554   0.41797   0.45389   0.45389   0.45389
     Eigenvalues ---    0.45389   0.45389   0.45389   0.45389   0.45389
 RFO step:  Lambda=-4.18408460D-01 EMin= 2.36824176D-03
 Linear search not attempted -- first point.
 Maximum step size (   0.300) exceeded in Quadratic search.
    -- Step size scaled by   0.382
 Iteration  1 RMS(Cart)=  0.20250491 RMS(Int)=  0.01013135
 Iteration  2 RMS(Cart)=  0.03731287 RMS(Int)=  0.00031256
 Iteration  3 RMS(Cart)=  0.00057803 RMS(Int)=  0.00004379
 Iteration  4 RMS(Cart)=  0.00000019 RMS(Int)=  0.00004379
 Variable       Old X    -DE/DX   Delta X   Delta X   Delta X     New X
                                 (Linear)    (Quad)   (Total)
    R1        2.64826   0.01644   0.00000   0.00740   0.00744   2.65570
    R2        2.64826   0.01479   0.00000   0.00679   0.00683   2.65509
    R3        2.91018   0.06538   0.00000   0.03545   0.03545   2.94563
    R4        2.64826  -0.01477   0.00000  -0.00658  -0.00658   2.64169
    R5        2.02201   0.00645   0.00000   0.00311   0.00311   2.02512
    R6        2.64826  -0.02833   0.00000  -0.01271  -0.01275   2.63551
    R7        3.32592  -0.00478   0.00000  -0.00255  -0.00255   3.32336
    R8        2.64826  -0.02593   0.00000  -0.01155  -0.01159   2.63668
    R9        2.02201   0.00907   0.00000   0.00438   0.00438   2.02638
   R10        2.64826  -0.00442   0.00000  -0.00182  -0.00182   2.64644
   R11        3.32592  -0.00439   0.00000  -0.00235  -0.00235   3.32357
   R12        2.02201  -0.04104   0.00000  -0.01980  -0.01980   2.00221
   R13        2.64826   0.01686   0.00000   0.00802   0.00812   2.65638
   R14        2.64826   0.11973   0.00000   0.05356   0.05363   2.70189
   R15        2.64826  -0.02417   0.00000  -0.01112  -0.01109   2.63717
   R16        2.02201   0.00552   0.00000   0.00266   0.00266   2.02467
   R17        2.64826  -0.03359   0.00000  -0.01588  -0.01595   2.63231
   R18        3.32592  -0.00711   0.00000  -0.00380  -0.00380   3.32212
   R19        2.64826  -0.03173   0.00000  -0.01452  -0.01462   2.63364
   R20        3.32592  -0.00783   0.00000  -0.00419  -0.00419   3.32173
   R21        2.64826   0.00127   0.00000   0.00110   0.00108   2.64934
   R22        2.02201   0.00834   0.00000   0.00403   0.00403   2.02603
   R23        3.32592  -0.00692   0.00000  -0.00370  -0.00370   3.32222
    A1        2.09440  -0.05819   0.00000  -0.03263  -0.03255   2.06184
    A2        2.09440  -0.13130   0.00000  -0.07523  -0.07527   2.01912
    A3        2.09440   0.18949   0.00000   0.10786   0.10783   2.20222
    A4        2.09440   0.03331   0.00000   0.01991   0.01994   2.11434
    A5        2.09440  -0.01196   0.00000  -0.00686  -0.00688   2.08752
    A6        2.09440  -0.02135   0.00000  -0.01305  -0.01307   2.08133
    A7        2.09440   0.00827   0.00000   0.00401   0.00397   2.09837
    A8        2.09440  -0.00331   0.00000  -0.00153  -0.00151   2.09288
    A9        2.09440  -0.00496   0.00000  -0.00248  -0.00246   2.09194
   A10        2.09440  -0.02030   0.00000  -0.01300  -0.01308   2.08132
   A11        2.09440   0.00941   0.00000   0.00601   0.00605   2.10045
   A12        2.09440   0.01089   0.00000   0.00699   0.00703   2.10142
   A13        2.09440   0.02104   0.00000   0.01176   0.01172   2.10612
   A14        2.09440  -0.01106   0.00000  -0.00619  -0.00617   2.08822
   A15        2.09440  -0.00998   0.00000  -0.00557  -0.00555   2.08884
   A16        2.09440   0.01586   0.00000   0.00996   0.01000   2.10439
   A17        2.09440   0.01905   0.00000   0.01282   0.01280   2.10719
   A18        2.09440  -0.03491   0.00000  -0.02278  -0.02280   2.07160
   A19        2.09440  -0.20115   0.00000  -0.11582  -0.11591   1.97849
   A20        2.09440   0.27787   0.00000   0.15760   0.15751   2.25190
   A21        2.09440  -0.07673   0.00000  -0.04178  -0.04160   2.05280
   A22        2.09440   0.05848   0.00000   0.03464   0.03476   2.12916
   A23        2.09440  -0.02561   0.00000  -0.01492  -0.01499   2.07941
   A24        2.09440  -0.03287   0.00000  -0.01972  -0.01978   2.07462
   A25        2.09440   0.00064   0.00000  -0.00237  -0.00242   2.09197
   A26        2.09440  -0.00735   0.00000  -0.00283  -0.00280   2.09159
   A27        2.09440   0.00672   0.00000   0.00520   0.00523   2.09962
   A28        2.09440  -0.00758   0.00000  -0.00720  -0.00737   2.08702
   A29        2.09440   0.01186   0.00000   0.00821   0.00829   2.10269
   A30        2.09440  -0.00428   0.00000  -0.00101  -0.00092   2.09348
   A31        2.09440   0.03840   0.00000   0.02236   0.02223   2.11663
   A32        2.09440  -0.01991   0.00000  -0.01165  -0.01159   2.08281
   A33        2.09440  -0.01849   0.00000  -0.01071  -0.01065   2.08375
   A34        2.09440  -0.01320   0.00000  -0.00565  -0.00560   2.08879
   A35        2.09440   0.18728   0.00000   0.10595   0.10593   2.20032
   A36        2.09440  -0.17408   0.00000  -0.10030  -0.10033   1.99407
    D1        0.00000   0.00000   0.00000   0.00000   0.00000   0.00000
    D2        3.14159   0.00000   0.00000   0.00000   0.00000   3.14159
    D3       -3.14159   0.00000   0.00000  -0.00000  -0.00000  -3.14159
    D4       -0.00000  -0.00000   0.00000  -0.00000  -0.00000  -0.00000
    D5       -0.00000  -0.00000   0.00000  -0.00000  -0.00000  -0.00000
    D6        3.14159  -0.00000   0.00000  -0.00000  -0.00000   3.14159
    D7        3.14159   0.00000   0.00000   0.00000   0.00000   3.14159
    D8        0.00000  -0.00000   0.00000  -0.00000  -0.00000   0.00000
    D9       -0.00000  -0.00000   0.00000  -0.00000  -0.00000  -0.00000
   D10        3.14159  -0.00000   0.00000  -0.00000  -0.00000   3.14159
   D11        3.14159  -0.00000   0.00000  -0.00000  -0.00000   3.14159
   D12       -0.00000  -0.00000   0.00000  -0.00000  -0.00000  -0.00000
   D13        0.00000  -0.00000   0.00000  -0.00000  -0.00000   0.00000
   D14        3.14159  -0.00000   0.00000  -0.00000  -0.00000   3.14159
   D15       -3.14159  -0.00000   0.00000  -0.00000  -0.00000  -3.14159
   D16        0.00000  -0.00000   0.00000  -0.00000  -0.00000   0.00000
   D17       -0.00000   0.00000   0.00000   0.00000   0.00000  -0.00000
   D18        3.14159   0.00000   0.00000   0.00000   0.00000   3.14159
   D19        3.14159  -0.00000   0.00000  -0.00000  -0.00000   3.14159
   D20        0.00000  -0.00000   0.00000  -0.00000  -0.00000   0.00000
   D21        0.00000   0.00000   0.00000   0.00000   0.00000   0.00000
   D22       -3.14159   0.00000   0.00000   0.00000   0.00000  -3.14159
   D23       -3.14159  -0.00000   0.00000  -0.00000  -0.00000  -3.14159
   D24        0.00000   0.00000   0.00000   0.00000   0.00000   0.00000
   D25       -0.00000   0.00000   0.00000   0.00000   0.00000  -0.00000
   D26        3.14159   0.00000   0.00000   0.00000   0.00000   3.14159
   D27        3.14159   0.00000   0.00000  -0.00000  -0.00000   3.14159
   D28       -0.00000   0.00000   0.00000   0.00000   0.00000  -0.00000
   D29        3.14159   0.00000   0.00000   0.00000   0.00000   3.14159
   D30        0.00000   0.00000   0.00000   0.00000   0.00000   0.00000
   D31        0.00000   0.00000   0.00000   0.00000   0.00000   0.00000
   D32       -3.14159  -0.00000   0.00000  -0.00000  -0.00000  -3.14159
   D33       -3.14159   0.00000   0.00000   0.00000   0.00000  -3.14159
   D34        0.00000  -0.00000   0.00000  -0.00000  -0.00000   0.00000
   D35       -0.00000  -0.00000   0.00000  -0.00000  -0.00000  -0.00000
   D36        3.14159  -0.00000   0.00000  -0.00000  -0.00000   3.14159
   D37       -0.00000   0.00000   0.00000  -0.00000  -0.00000  -0.00000
   D38        3.14159  -0.00000   0.00000  -0.00000  -0.00000   3.14159
   D39        3.14159   0.00000   0.00000   0.00000   0.00000   3.14159
   D40       -0.00000   0.00000   0.00000   0.00000   0.00000  -0.00000
   D41       -0.00000  -0.00000   0.00000  -0.00000  -0.00000  -0.00000
   D42       -3.14159  -0.00000   0.00000  -0.00000  -0.00000  -3.14159
   D43        3.14159   0.00000   0.00000   0.00000   0.00000   3.14159
   D44        0.00000   0.00000   0.00000  -0.00000  -0.00000   0.00000
   D45        0.00000   0.00000   0.00000   0.00000   0.00000   0.00000
   D46       -3.14159   0.00000   0.00000   0.00000   0.00000  -3.14159
   D47        3.14159   0.00000   0.00000   0.00000   0.00000   3.14159
   D48        0.00000   0.00000   0.00000   0.00000   0.00000   0.00000
   D49        0.00000   0.00000   0.00000   0.00000   0.00000   0.00000
   D50       -3.14159   0.00000   0.00000   0.00000   0.00000  -3.14159
   D51        3.14159   0.00000   0.00000   0.00000   0.00000   3.14159
   D52       -0.00000   0.00000   0.00000   0.00000   0.00000  -0.00000
         Item               Value     Threshold  Converged?
 Maximum Force            0.277875     0.000450     NO 
 RMS     Force            0.050599     0.000300     NO 
 Maximum Displacement     0.986638     0.001800     NO 
 RMS     Displacement     0.235167     0.001200     NO 
 Predicted change in Energy=-1.480038D-01
 GradGradGradGradGradGradGradGradGradGradGradGradGradGradGradGradGradGrad

                          Input orientation:                          
 ---------------------------------------------------------------------
 Center     Atomic      Atomic             Coordinates (Angstroms)
 Number     Number       Type             X           Y           Z
 ---------------------------------------------------------------------
      1          6           0        1.064357    0.056221    0.060795
      2          6           0        2.388982   -0.052060   -0.395945
      3          6           0        3.224907    1.066486   -0.461271
      4          6           0        2.753096    2.319389   -0.070523
      5          6           0        1.439988    2.441728    0.385061
      6          6           0        0.599851    1.323273    0.451792
      7          6           0        0.246131   -1.270363    0.081220
      8          6           0        0.977504   -2.383287   -0.368753
      9          6           0        0.419468   -3.661155   -0.424900
     10          6           0       -0.900693   -3.859535   -0.027220
     11          6           0       -1.653289   -2.776839    0.424068
     12          6           0       -1.107770   -1.486872    0.486611
     13          1           0        2.767704   -1.007295   -0.700117
     14          1           0        3.392667    3.178679   -0.119850
     15          1           0       -0.391592    1.451971    0.802597
     16          1           0        1.994313   -2.248835   -0.678495
     17          1           0       -2.669005   -2.933925    0.729205
     18         17           0       -2.218358   -0.261306    1.082678
     19         17           0        0.834213    4.016802    0.880447
     20         17           0       -1.619808   -5.462213   -0.091297
     21         17           0        1.386082   -5.013383   -0.997319
     22         17           0        4.877301    0.893980   -1.038057
 ---------------------------------------------------------------------
                    Distance matrix (angstroms):
                    1          2          3          4          5
     1  C    0.000000
     2  C    1.405336   0.000000
     3  C    2.441550   1.397921   0.000000
     4  C    2.826839   2.421208   1.394653   0.000000
     5  C    2.436574   2.780205   2.406970   1.395269   0.000000
     6  C    1.405014   2.410641   2.791154   2.429306   1.400438
     7  C    1.558761   2.510729   3.824691   4.381121   3.911168
     8  C    2.478559   2.725368   4.118290   5.035557   4.905395
     9  C    3.804033   4.111617   5.497491   6.429488   6.240408
    10  C    4.382045   5.045275   6.440083   7.178521   6.734589
    11  C    3.942562   4.943359   6.273099   6.755176   6.066575
    12  C    2.698257   3.881349   5.117637   5.450166   4.683512
    13  H    2.147427   1.071646   2.136972   3.385769   3.851779
    14  H    3.899154   3.394302   2.146176   1.072316   2.147320
    15  H    2.148994   3.380858   3.850328   3.376954   2.123357
    16  H    2.593193   2.249760   3.543007   4.670552   4.841468
    17  H    4.829672   5.929110   7.222099   7.591841   6.774947
    18  Cl   3.452722   4.843315   5.811708   5.718848   4.601800
    19  Cl   4.051048   4.538955   4.027405   2.732703   1.758757
    20  Cl   6.138484   6.740398   8.138308   8.926145   8.488908
    21  Cl   5.188834   5.097273   6.374436   7.516464   7.582385
    22  Cl   4.055596   2.738436   1.758649   2.734988   4.029381
                    6          7          8          9         10
     6  C    0.000000
     7  C    2.643746   0.000000
     8  C    3.815036   1.405696   0.000000
     9  C    5.064154   2.449916   1.395531   0.000000
    10  C    5.416880   2.833863   2.413210   1.392957   0.000000
    11  C    4.678496   2.448431   2.775702   2.408128   1.393662
    12  C    3.288479   1.429779   2.425608   2.809060   2.436480
    13  H    3.384971   2.652927   2.282098   3.554284   4.695232
    14  H    3.401341   5.452989   6.068807   7.464335   8.244876
    15  H    1.059522   2.887591   4.237415   5.320585   5.399989
    16  H    3.997753   2.142595   1.071409   2.130516   3.376326
    17  H    5.374580   3.418383   3.847823   3.376312   2.134446
    18  Cl   3.294118   2.845141   4.101584   4.559594   3.989408
    19  Cl   2.737474   5.379472   6.522435   7.799165   8.116061
    20  Cl   7.159934   4.591633   4.037672   2.741121   1.757785
    21  Cl   6.547617   4.058686   2.734856   1.757989   2.738941
    22  Cl   4.549782   5.233058   5.137787   6.402929   7.550028
                   11         12         13         14         15
    11  C    0.000000
    12  C    1.401969   0.000000
    13  H    4.892878   4.081374   0.000000
    14  H    7.824686   6.510690   4.271962   0.000000
    15  H    4.429221   3.041308   4.276364   4.260639   0.000000
    16  H    3.847003   3.400144   1.462882   5.632529   4.645658
    17  H    1.072130   2.142491   5.942446   8.650357   4.942477
    18  Cl   2.661011   1.758043   5.347492   6.690528   2.520087
    19  Cl   7.249103   5.849515   5.610536   2.872060   2.843768
    20  Cl   2.734585   4.049629   6.282294   9.989531   7.079089
    21  Cl   4.032399   4.567015   4.248053   8.479753   6.942667
    22  Cl   7.632911   6.619225   2.859973   2.875255   5.608975
                   16         17         18         19         20
    16  H    0.000000
    17  H    4.919096   0.000000
    18  Cl   4.979820   2.733298   0.000000
    19  Cl   6.560056   7.785114   5.259400   0.000000
    20  Cl   4.871598   2.857670   5.365251   9.839625   0.000000
    21  Cl   2.848564   4.873270   6.316693   9.239848   3.171387
    22  Cl   4.279975   8.644235   7.495371   5.457035   9.138379
                   21         22
    21  Cl   0.000000
    22  Cl   6.862012   0.000000
 Stoichiometry    C12H5Cl5
 Framework group  C1[X(C12H5Cl5)]
 Deg. of freedom    60
 Full point group                 C1      NOp   1
 Largest Abelian subgroup         C1      NOp   1
 Largest concise Abelian subgroup C1      NOp   1
                         Standard orientation:                         
 ---------------------------------------------------------------------
 Center     Atomic      Atomic             Coordinates (Angstroms)
 Number     Number       Type             X           Y           Z
 ---------------------------------------------------------------------
      1          6           0        1.040528   -0.083460    0.000001
      2          6           0        1.447992    1.261509   -0.000000
      3          6           0        2.802670    1.606516   -0.000002
      4          6           0        3.780470    0.612050   -0.000002
      5          6           0        3.390419   -0.727591    0.000001
      6          6           0        2.034210   -1.076767    0.000003
      7          6           0       -0.499747   -0.322811    0.000002
      8          6           0       -1.248639    0.866786    0.000003
      9          6           0       -2.644162    0.861916    0.000003
     10          6           0       -3.333494   -0.348519    0.000001
     11          6           0       -2.620686   -1.546098   -0.000001
     12          6           0       -1.218772   -1.558639   -0.000000
     13          1           0        0.709784    2.038344   -0.000002
     14          1           0        4.820163    0.874537   -0.000004
     15          1           0        1.773301   -2.103662    0.000005
     16          1           0       -0.734668    1.806866    0.000002
     17          1           0       -3.155168   -2.475502   -0.000005
     18         17           0       -0.511031   -3.167929   -0.000005
     19         17           0        4.614803   -1.990171    0.000005
     20         17           0       -5.091101   -0.373492   -0.000002
     21         17           0       -3.524201    2.383775    0.000004
     22         17           0        3.276344    3.300175   -0.000005
 ---------------------------------------------------------------------
 Rotational constants (GHZ):           0.4055722           0.1513897           0.1102399
 Standard basis: 6-311+G(d,p) (5D, 7F)
 There are   461 symmetry adapted cartesian basis functions of A   symmetry.
 There are   444 symmetry adapted basis functions of A   symmetry.
   444 basis functions,   737 primitive gaussians,   461 cartesian basis functions
    81 alpha electrons       81 beta electrons
       nuclear repulsion energy      1644.6194334039 Hartrees.
 NAtoms=   22 NActive=   22 NUniq=   22 SFac= 1.00D+00 NAtFMM=   60 NAOKFM=F Big=F
 Integral buffers will be    131072 words long.
 Raffenetti 2 integral format.
 Two-electron integral symmetry is turned on.
 One-electron integrals computed using PRISM.
 NBasis=   444 RedAO= T EigKep=  1.50D-06  NBF=   444
 NBsUse=   438 1.00D-06 EigRej=  9.58D-07 NBFU=   438
 Initial guess from the checkpoint file:  "./Gau-171253.chk"
 B after Tr=     0.000000   -0.000000    0.000000
         Rot=    0.999986    0.000000   -0.000000    0.005331 Ang=   0.61 deg.
 ExpMin= 4.38D-02 ExpMax= 1.06D+05 ExpMxC= 3.62D+03 IAcc=3 IRadAn=         5 AccDes= 0.00D+00
 Harris functional with IExCor=  402 and IRadAn=       5 diagonalized for initial guess.
 HarFok:  IExCor=  402 AccDes= 0.00D+00 IRadAn=         5 IDoV= 1 UseB2=F ITyADJ=14
 ICtDFT=  3500011 ScaDFX=  1.000000  1.000000  1.000000  1.000000
 FoFCou: FMM=F IPFlag=           0 FMFlag=      100000 FMFlg1=           0
         NFxFlg=           0 DoJE=T BraDBF=F KetDBF=T FulRan=T
         wScrn=  0.000000 ICntrl=       500 IOpCl=  0 I1Cent=   200000004 NGrid=           0
         NMat0=    1 NMatS0=      1 NMatT0=    0 NMatD0=    1 NMtDS0=    0 NMtDT0=    0
 Petite list used in FoFCou.
 Requested convergence on RMS density matrix=1.00D-08 within  32 cycles.
 Requested convergence on MAX density matrix=1.00D-06.
 Requested convergence on             energy=1.00D-06.
 No special actions if energy rises.
 EnCoef did     2 forward-backward iterations
 SCF Done:  E(RB3LYP) =  -2761.50070411     A.U. after   17 cycles
            NFock= 17  Conv=0.57D-08     -V/T= 2.0028
 QCSCF skips out because SCF is already converged.
 Calling FoFJK, ICntrl=      2127 FMM=F ISym2X=0 I1Cent= 0 IOpClX= 0 NMat=1 NMatS=1 NMatT=0.
 ***** Axes restored to original set *****
 -------------------------------------------------------------------
 Center     Atomic                   Forces (Hartrees/Bohr)
 Number     Number              X              Y              Z
 -------------------------------------------------------------------
      1        6          -0.009087967   -0.016702732   -0.000142918
      2        6           0.006825077    0.016376440    0.000827220
      3        6          -0.013464292   -0.004544161    0.003582553
      4        6          -0.000980529    0.001334674    0.000573501
      5        6           0.002755605   -0.013311754   -0.003407875
      6        6           0.009011136   -0.000521214   -0.003066607
      7        6           0.007653565    0.025527888    0.002273002
      8        6          -0.022989018   -0.014694987    0.004814092
      9        6           0.006661051    0.000999184   -0.002006941
     10        6          -0.003833360   -0.002727680    0.000750721
     11        6           0.009586277    0.003213056   -0.002554690
     12        6           0.013837052   -0.010641628   -0.006557381
     13        1           0.010129474    0.008428789   -0.001754235
     14        1           0.004014936    0.005544530   -0.000281417
     15        1          -0.012646521    0.001788532    0.004502323
     16        1          -0.003585880   -0.011553615   -0.000988637
     17        1          -0.006151629   -0.000924198    0.001853046
     18       17           0.005411845    0.001682723   -0.001466969
     19       17           0.001564441   -0.004029197   -0.001272088
     20       17          -0.000813369    0.007552686    0.001686376
     21       17          -0.000049942    0.006576148    0.001251535
     22       17          -0.003847950    0.000626516    0.001385390
 -------------------------------------------------------------------
 Cartesian Forces:  Max     0.025527888 RMS     0.007753135

 GradGradGradGradGradGradGradGradGradGradGradGradGradGradGradGradGradGrad
 Berny optimization.
 Using GEDIIS/GDIIS optimizer.
 FormGI is forming the generalized inverse of G from B-inverse, IUseBI=4.
 Internal  Forces:  Max     0.061004593 RMS     0.011338075
 Search for a local minimum.
 Step number   2 out of a maximum of  121
 All quantities printed in internal units (Hartrees-Bohrs-Radians)
 Mixed Optimization -- RFO/linear search
 Update second derivatives using D2CorX and points    1    2
 DE= -3.98D-02 DEPred=-1.48D-01 R= 2.69D-01
 Trust test= 2.69D-01 RLast= 3.00D-01 DXMaxT set to 3.00D-01
 ITU=  0  0
 Use linear search instead of GDIIS.
     Eigenvalues ---    0.00237   0.01478   0.01485   0.02070   0.02070
     Eigenvalues ---    0.02070   0.02070   0.02070   0.02070   0.02070
     Eigenvalues ---    0.02070   0.02070   0.02070   0.02070   0.02070
     Eigenvalues ---    0.02070   0.02070   0.02070   0.02070   0.15965
     Eigenvalues ---    0.16000   0.16000   0.16000   0.16034   0.23018
     Eigenvalues ---    0.23390   0.23483   0.23506   0.23918   0.24782
     Eigenvalues ---    0.25000   0.25000   0.25000   0.25000   0.25000
     Eigenvalues ---    0.25000   0.28455   0.29523   0.29539   0.29539
     Eigenvalues ---    0.29539   0.29539   0.37084   0.37212   0.37230
     Eigenvalues ---    0.37230   0.37230   0.40645   0.41365   0.41456
     Eigenvalues ---    0.41646   0.45037   0.45313   0.45389   0.45389
     Eigenvalues ---    0.45389   0.45389   0.45389   0.45389   2.09149
 RFO step:  Lambda=-1.42515970D-02 EMin= 2.36824176D-03
 Quartic linear search produced a step of -0.31647.
 Iteration  1 RMS(Cart)=  0.15466121 RMS(Int)=  0.00493108
 Iteration  2 RMS(Cart)=  0.00837507 RMS(Int)=  0.00005043
 Iteration  3 RMS(Cart)=  0.00002034 RMS(Int)=  0.00005008
 Iteration  4 RMS(Cart)=  0.00000000 RMS(Int)=  0.00005008
 Variable       Old X    -DE/DX   Delta X   Delta X   Delta X     New X
                                 (Linear)    (Quad)   (Total)
    R1        2.65570   0.00942  -0.00235   0.02070   0.01835   2.67405
    R2        2.65509  -0.00277  -0.00216   0.00192  -0.00021   2.65488
    R3        2.94563  -0.00728  -0.01122   0.01149   0.00027   2.94590
    R4        2.64169  -0.00871   0.00208  -0.01781  -0.01575   2.62594
    R5        2.02512  -0.00344  -0.00098  -0.00349  -0.00448   2.02064
    R6        2.63551  -0.00766   0.00404  -0.02217  -0.01817   2.61734
    R7        3.32336  -0.00413   0.00081  -0.01115  -0.01034   3.31303
    R8        2.63668  -0.01054   0.00367  -0.02586  -0.02220   2.61447
    R9        2.02638   0.00685  -0.00139   0.01573   0.01434   2.04072
   R10        2.64644  -0.00878   0.00058  -0.01483  -0.01423   2.63221
   R11        3.32357  -0.00451   0.00074  -0.01181  -0.01106   3.31250
   R12        2.00221   0.01354   0.00627   0.00752   0.01379   2.01599
   R13        2.65638   0.00664  -0.00257   0.01660   0.01410   2.67048
   R14        2.70189  -0.01807  -0.01697   0.01855   0.00170   2.70359
   R15        2.63717  -0.00690   0.00351  -0.01879  -0.01532   2.62185
   R16        2.02467  -0.00457  -0.00084  -0.00586  -0.00670   2.01797
   R17        2.63231  -0.00054   0.00505  -0.01370  -0.00877   2.62354
   R18        3.32212  -0.00549   0.00120  -0.01514  -0.01394   3.30818
   R19        2.63364  -0.01024   0.00463  -0.02740  -0.02285   2.61079
   R20        3.32173  -0.00661   0.00132  -0.01793  -0.01660   3.30513
   R21        2.64934  -0.00883  -0.00034  -0.01267  -0.01297   2.63637
   R22        2.02603   0.00649  -0.00127   0.01480   0.01352   2.03956
   R23        3.32222  -0.00274   0.00117  -0.00900  -0.00783   3.31439
    A1        2.06184  -0.01071   0.01030  -0.05089  -0.04054   2.02130
    A2        2.01912   0.05470   0.02382   0.08234   0.10614   2.12527
    A3        2.20222  -0.04400  -0.03412  -0.03146  -0.06560   2.13662
    A4        2.11434  -0.00091  -0.00631   0.01494   0.00862   2.12295
    A5        2.08752   0.01346   0.00218   0.04558   0.04777   2.13528
    A6        2.08133  -0.01255   0.00414  -0.06052  -0.05638   2.02495
    A7        2.09837   0.00893  -0.00126   0.02699   0.02568   2.12405
    A8        2.09288  -0.00409   0.00048  -0.01216  -0.01165   2.08123
    A9        2.09194  -0.00484   0.00078  -0.01483  -0.01402   2.07791
   A10        2.08132  -0.00879   0.00414  -0.03677  -0.03267   2.04865
   A11        2.10045   0.00449  -0.00191   0.01843   0.01654   2.11698
   A12        2.10142   0.00430  -0.00222   0.01833   0.01613   2.11755
   A13        2.10612   0.00687  -0.00371   0.02506   0.02137   2.12748
   A14        2.08822  -0.00346   0.00195  -0.01283  -0.01089   2.07734
   A15        2.08884  -0.00341   0.00176  -0.01223  -0.01048   2.07836
   A16        2.10439   0.00460  -0.00316   0.02066   0.01755   2.12194
   A17        2.10719  -0.00215  -0.00405   0.00232  -0.00176   2.10544
   A18        2.07160  -0.00245   0.00721  -0.02298  -0.01579   2.05581
   A19        1.97849   0.06100   0.03668   0.06872   0.10529   2.08378
   A20        2.25190  -0.04477  -0.04985   0.00631  -0.04364   2.20826
   A21        2.05280  -0.01624   0.01316  -0.07503  -0.06165   1.99115
   A22        2.12916   0.00639  -0.01100   0.04612   0.03516   2.16432
   A23        2.07941   0.00819   0.00474   0.02317   0.02789   2.10730
   A24        2.07462  -0.01458   0.00626  -0.06929  -0.06305   2.01156
   A25        2.09197   0.00028   0.00077   0.00116   0.00177   2.09374
   A26        2.09159  -0.00650   0.00089  -0.02010  -0.01913   2.07246
   A27        2.09962   0.00621  -0.00165   0.01894   0.01736   2.11699
   A28        2.08702  -0.00532   0.00233  -0.01854  -0.01641   2.07061
   A29        2.10269   0.00947  -0.00262   0.03041   0.02789   2.13058
   A30        2.09348  -0.00415   0.00029  -0.01187  -0.01147   2.08200
   A31        2.11663  -0.00097  -0.00704   0.01213   0.00505   2.12167
   A32        2.08281   0.00051   0.00367  -0.00627  -0.00258   2.08023
   A33        2.08375   0.00045   0.00337  -0.00585  -0.00246   2.08129
   A34        2.08879   0.01585   0.00177   0.03416   0.03609   2.12489
   A35        2.20032  -0.01651  -0.03352   0.04026   0.00666   2.20698
   A36        1.99407   0.00067   0.03175  -0.07442  -0.04275   1.95131
    D1        0.00000  -0.00000  -0.00000  -0.00000  -0.00000   0.00000
    D2        3.14159  -0.00000  -0.00000  -0.00000  -0.00000   3.14159
    D3       -3.14159  -0.00000   0.00000  -0.00000  -0.00000  -3.14159
    D4       -0.00000  -0.00000   0.00000   0.00000   0.00000  -0.00000
    D5       -0.00000   0.00000   0.00000   0.00000   0.00000  -0.00000
    D6        3.14159   0.00000   0.00000   0.00000   0.00000   3.14159
    D7        3.14159  -0.00000  -0.00000   0.00000   0.00000   3.14159
    D8       -0.00000  -0.00000   0.00000  -0.00000  -0.00000  -0.00000
    D9       -0.00000  -0.00000   0.00000  -0.00000  -0.00000  -0.00000
   D10        3.14159  -0.00000   0.00000  -0.00000  -0.00000   3.14159
   D11        3.14159  -0.00000   0.00000  -0.00000  -0.00000   3.14159
   D12       -0.00000  -0.00000   0.00000   0.00000   0.00000  -0.00000
   D13        0.00000  -0.00000   0.00000  -0.00000  -0.00000   0.00000
   D14        3.14159   0.00000   0.00000   0.00000   0.00000   3.14159
   D15       -3.14159  -0.00000   0.00000  -0.00000  -0.00000  -3.14159
   D16        0.00000  -0.00000   0.00000  -0.00000  -0.00000   0.00000
   D17       -0.00000   0.00000  -0.00000   0.00000   0.00000  -0.00000
   D18        3.14159   0.00000  -0.00000   0.00000   0.00000   3.14159
   D19        3.14159   0.00000   0.00000   0.00000   0.00000   3.14159
   D20        0.00000  -0.00000   0.00000  -0.00000  -0.00000   0.00000
   D21        0.00000  -0.00000  -0.00000  -0.00000  -0.00000   0.00000
   D22       -3.14159  -0.00000  -0.00000  -0.00000  -0.00000  -3.14159
   D23       -3.14159  -0.00000   0.00000  -0.00000  -0.00000  -3.14159
   D24        0.00000  -0.00000  -0.00000  -0.00000  -0.00000   0.00000
   D25       -0.00000   0.00000  -0.00000   0.00000   0.00000  -0.00000
   D26        3.14159   0.00000  -0.00000   0.00000   0.00000   3.14159
   D27        3.14159   0.00000   0.00000   0.00000   0.00000   3.14159
   D28       -0.00000   0.00000  -0.00000   0.00000   0.00000  -0.00000
   D29        3.14159  -0.00000  -0.00000   0.00000   0.00000  -3.14159
   D30        0.00000  -0.00000  -0.00000  -0.00000  -0.00000   0.00000
   D31        0.00000  -0.00000  -0.00000  -0.00000  -0.00000   0.00000
   D32       -3.14159  -0.00000   0.00000  -0.00000  -0.00000  -3.14159
   D33       -3.14159  -0.00000  -0.00000  -0.00000  -0.00000   3.14159
   D34        0.00000  -0.00000   0.00000  -0.00000  -0.00000  -0.00000
   D35       -0.00000   0.00000   0.00000   0.00000   0.00000  -0.00000
   D36        3.14159   0.00000   0.00000   0.00000   0.00000   3.14159
   D37       -0.00000  -0.00000   0.00000   0.00000   0.00000  -0.00000
   D38        3.14159  -0.00000   0.00000  -0.00000  -0.00000   3.14159
   D39        3.14159   0.00000  -0.00000   0.00000   0.00000   3.14159
   D40       -0.00000   0.00000  -0.00000   0.00000   0.00000  -0.00000
   D41       -0.00000   0.00000   0.00000   0.00000   0.00000   0.00000
   D42       -3.14159  -0.00000   0.00000  -0.00000  -0.00000  -3.14159
   D43        3.14159   0.00000  -0.00000   0.00000   0.00000  -3.14159
   D44        0.00000  -0.00000   0.00000  -0.00000  -0.00000   0.00000
   D45        0.00000   0.00000  -0.00000  -0.00000  -0.00000  -0.00000
   D46       -3.14159  -0.00000  -0.00000  -0.00000  -0.00000  -3.14159
   D47        3.14159   0.00000  -0.00000   0.00000   0.00000   3.14159
   D48        0.00000  -0.00000  -0.00000  -0.00000  -0.00000   0.00000
   D49        0.00000  -0.00000  -0.00000  -0.00000  -0.00000   0.00000
   D50       -3.14159  -0.00000  -0.00000  -0.00000  -0.00000  -3.14159
   D51        3.14159   0.00000  -0.00000   0.00000   0.00000   3.14159
   D52       -0.00000   0.00000  -0.00000   0.00000   0.00000  -0.00000
         Item               Value     Threshold  Converged?
 Maximum Force            0.061005     0.000450     NO 
 RMS     Force            0.011338     0.000300     NO 
 Maximum Displacement     0.554662     0.001800     NO 
 RMS     Displacement     0.156014     0.001200     NO 
 Predicted change in Energy=-9.493991D-03
 GradGradGradGradGradGradGradGradGradGradGradGradGradGradGradGradGradGrad

                          Input orientation:                          
 ---------------------------------------------------------------------
 Center     Atomic      Atomic             Coordinates (Angstroms)
 Number     Number       Type             X           Y           Z
 ---------------------------------------------------------------------
      1          6           0        1.179674   -0.006330    0.011057
      2          6           0        2.525122    0.026508   -0.426039
      3          6           0        3.256648    1.207801   -0.445187
      4          6           0        2.705938    2.411540   -0.037681
      5          6           0        1.391132    2.396407    0.392644
      6          6           0        0.639205    1.224212    0.420222
      7          6           0        0.356156   -1.329766    0.033817
[...]
                 (A) (A) (A) (A) (A) (A) (A) (A) (A) (A) (A) (A)
                 (A) (A) (A) (A) (A) (A) (A) (A) (A) (A) (A) (A)
                 (A) (A) (A) (A) (A) (A) (A) (A) (A)
       Virtual   (A) (A) (A) (A) (A) (A) (A) (A) (A) (A) (A) (A)
                 (A) (A) (A) (A) (A) (A) (A) (A) (A) (A) (A) (A)
                 (A) (A) (A) (A) (A) (A) (A) (A) (A) (A) (A) (A)
                 (A) (A) (A) (A) (A) (A) (A) (A) (A) (A) (A) (A)
                 (A) (A) (A) (A) (A) (A) (A) (A) (A) (A) (A) (A)
                 (A) (A) (A) (A) (A) (A) (A) (A) (A) (A) (A) (A)
                 (A) (A) (A) (A) (A) (A) (A) (A) (A) (A) (A) (A)
                 (A) (A) (A) (A) (A) (A) (A) (A) (A) (A) (A) (A)
                 (A) (A) (A) (A) (A) (A) (A) (A) (A) (A) (A) (A)
                 (A) (A) (A) (A) (A) (A) (A) (A) (A) (A) (A) (A)
                 (A) (A) (A) (A) (A) (A) (A) (A) (A) (A) (A) (A)
                 (A) (A) (A) (A) (A) (A) (A) (A) (A) (A) (A) (A)
                 (A) (A) (A) (A) (A) (A) (A) (A) (A) (A) (A) (A)
                 (A) (A) (A) (A) (A) (A) (A) (A) (A) (A) (A) (A)
                 (A) (A) (A) (A) (A) (A) (A) (A) (A) (A) (A) (A)
                 (A) (A) (A) (A) (A) (A) (A) (A) (A) (A) (A) (A)
                 (A) (A) (A) (A) (A) (A) (A) (A) (A) (A) (A) (A)
                 (A) (A) (A) (A) (A) (A) (A) (A) (A) (A) (A) (A)
                 (A) (A) (A) (A) (A) (A) (A) (A) (A) (A) (A) (A)
                 (A) (A) (A) (A) (A) (A) (A) (A) (A) (A) (A) (A)
                 (A) (A) (A) (A) (A) (A) (A) (A) (A) (A) (A) (A)
                 (A) (A) (A) (A) (A) (A) (A) (A) (A) (A) (A) (A)
                 (A) (A) (A) (A) (A) (A) (A) (A) (A) (A) (A) (A)
                 (A) (A) (A) (A) (A) (A) (A) (A) (A) (A) (A) (A)
                 (A) (A) (A) (A) (A) (A) (A) (A) (A) (A) (A) (A)
                 (A) (A) (A) (A) (A) (A) (A) (A) (A) (A) (A) (A)
                 (A) (A) (A) (A) (A) (A) (A) (A) (A) (A) (A) (A)
                 (A) (A) (A) (A) (A) (A) (A) (A) (A) (A) (A) (A)
                 (A) (A) (A) (A) (A) (A) (A) (A) (A) (A) (A) (A)
                 (A) (A) (A) (A) (A) (A) (A) (A) (A) (A) (A) (A)
 The electronic state is 1-A.
 Alpha  occ. eigenvalues -- -101.57869-101.57748-101.57629-101.57177-101.57097
 Alpha  occ. eigenvalues --  -10.27537 -10.27245 -10.27219 -10.26561 -10.26518
 Alpha  occ. eigenvalues --  -10.23448 -10.22931 -10.22347 -10.22278 -10.21521
 Alpha  occ. eigenvalues --  -10.21240 -10.21157  -9.49323  -9.49202  -9.49099
 Alpha  occ. eigenvalues --   -9.48632  -9.48552  -7.25811  -7.25689  -7.25572
 Alpha  occ. eigenvalues --   -7.25101  -7.25021  -7.24803  -7.24743  -7.24680
 Alpha  occ. eigenvalues --   -7.24625  -7.24581  -7.24530  -7.24112  -7.24075
 Alpha  occ. eigenvalues --   -7.24032  -7.23994  -0.94945  -0.93047  -0.90837
 Alpha  occ. eigenvalues --   -0.89208  -0.88374  -0.86124  -0.84123  -0.79954
 Alpha  occ. eigenvalues --   -0.76823  -0.75925  -0.74572  -0.66948  -0.65150
 Alpha  occ. eigenvalues --   -0.62687  -0.60734  -0.55367  -0.53828  -0.53273
 Alpha  occ. eigenvalues --   -0.51406  -0.50017  -0.48118  -0.46739  -0.46552
 Alpha  occ. eigenvalues --   -0.46033  -0.44918  -0.43451  -0.43102  -0.41477
 Alpha  occ. eigenvalues --   -0.40175  -0.40040  -0.39423  -0.38105  -0.37033
 Alpha  occ. eigenvalues --   -0.35263  -0.34634  -0.33893  -0.33809  -0.33333
 Alpha  occ. eigenvalues --   -0.33077  -0.32957  -0.29363  -0.27941  -0.27033
 Alpha  occ. eigenvalues --   -0.26378
 Alpha virt. eigenvalues --   -0.07100  -0.06012  -0.04729  -0.03756  -0.02937
 Alpha virt. eigenvalues --   -0.01636  -0.00739  -0.00219   0.00722   0.01446
 Alpha virt. eigenvalues --    0.01606   0.02068   0.02322   0.03275   0.03603
 Alpha virt. eigenvalues --    0.04283   0.04672   0.04957   0.05476   0.06402
 Alpha virt. eigenvalues --    0.06626   0.07034   0.07633   0.08155   0.08412
 Alpha virt. eigenvalues --    0.08960   0.09129   0.09386   0.09651   0.10028
 Alpha virt. eigenvalues --    0.10544   0.10769   0.11054   0.11403   0.11787
 Alpha virt. eigenvalues --    0.12000   0.12210   0.12719   0.12929   0.13181
 Alpha virt. eigenvalues --    0.13358   0.13968   0.14422   0.14784   0.15031
 Alpha virt. eigenvalues --    0.15990   0.16430   0.16722   0.16998   0.17268
 Alpha virt. eigenvalues --    0.17805   0.18051   0.18319   0.18982   0.19489
 Alpha virt. eigenvalues --    0.19786   0.19980   0.20260   0.20815   0.20961
 Alpha virt. eigenvalues --    0.21505   0.21783   0.22054   0.22293   0.23202
 Alpha virt. eigenvalues --    0.23431   0.23712   0.24181   0.24472   0.24935
 Alpha virt. eigenvalues --    0.25185   0.26045   0.26274   0.26861   0.27202
 Alpha virt. eigenvalues --    0.27386   0.27802   0.27961   0.28111   0.28697
 Alpha virt. eigenvalues --    0.29293   0.29465   0.29874   0.30214   0.31488
 Alpha virt. eigenvalues --    0.32071   0.32553   0.33296   0.33858   0.34700
 Alpha virt. eigenvalues --    0.40094   0.41164   0.42158   0.42373   0.43778
 Alpha virt. eigenvalues --    0.44282   0.44709   0.45235   0.45462   0.46125
 Alpha virt. eigenvalues --    0.46587   0.46799   0.46971   0.47623   0.47795
 Alpha virt. eigenvalues --    0.48463   0.48842   0.50349   0.52824   0.54199
 Alpha virt. eigenvalues --    0.54463   0.55048   0.55168   0.56007   0.56177
 Alpha virt. eigenvalues --    0.57485   0.58888   0.58944   0.59529   0.59721
 Alpha virt. eigenvalues --    0.60995   0.61361   0.61684   0.62049   0.63222
 Alpha virt. eigenvalues --    0.64591   0.64943   0.65612   0.66478   0.67190
 Alpha virt. eigenvalues --    0.67951   0.68090   0.68683   0.69237   0.69684
 Alpha virt. eigenvalues --    0.70366   0.70843   0.71666   0.73662   0.76822
 Alpha virt. eigenvalues --    0.80174   0.80636   0.81027   0.82448   0.83224
 Alpha virt. eigenvalues --    0.83438   0.84003   0.84154   0.84444   0.84557
 Alpha virt. eigenvalues --    0.84699   0.85209   0.85271   0.85538   0.86069
 Alpha virt. eigenvalues --    0.86184   0.86689   0.87322   0.88012   0.88621
 Alpha virt. eigenvalues --    0.89397   0.89885   0.90543   0.90864   0.91340
 Alpha virt. eigenvalues --    0.92172   0.93056   0.93474   0.93671   0.94508
 Alpha virt. eigenvalues --    0.95055   0.95573   0.95928   0.96804   0.97063
 Alpha virt. eigenvalues --    0.98602   0.99387   1.02034   1.02650   1.03509
 Alpha virt. eigenvalues --    1.04308   1.08526   1.08990   1.09377   1.11296
 Alpha virt. eigenvalues --    1.12502   1.15286   1.17683   1.20656   1.21347
 Alpha virt. eigenvalues --    1.22059   1.22657   1.23546   1.23824   1.25185
 Alpha virt. eigenvalues --    1.26118   1.27509   1.29008   1.29488   1.31548
 Alpha virt. eigenvalues --    1.31946   1.34101   1.36205   1.42345   1.43537
 Alpha virt. eigenvalues --    1.48415   1.49946   1.50659   1.53557   1.54617
 Alpha virt. eigenvalues --    1.55791   1.56518   1.57364   1.58567   1.59674
 Alpha virt. eigenvalues --    1.60117   1.63051   1.64511   1.67642   1.68643
 Alpha virt. eigenvalues --    1.69714   1.71655   1.73206   1.76633   1.77943
 Alpha virt. eigenvalues --    1.82703   1.85174   1.86867   1.87991   1.88430
 Alpha virt. eigenvalues --    1.90086   1.90979   1.91704   1.93948   1.95169
 Alpha virt. eigenvalues --    1.95365   1.95709   1.97080   1.98783   2.01759
 Alpha virt. eigenvalues --    2.03231   2.04595   2.05217   2.07702   2.09354
 Alpha virt. eigenvalues --    2.11213   2.13600   2.16402   2.22350   2.23086
 Alpha virt. eigenvalues --    2.23447   2.25965   2.26997   2.27720   2.28649
 Alpha virt. eigenvalues --    2.28951   2.30545   2.31685   2.33289   2.36721
 Alpha virt. eigenvalues --    2.39745   2.40400   2.42914   2.43396   2.46549
 Alpha virt. eigenvalues --    2.47657   2.50433   2.51303   2.53141   2.54456
 Alpha virt. eigenvalues --    2.55484   2.56537   2.59223   2.61011   2.62843
 Alpha virt. eigenvalues --    2.65178   2.66542   2.67542   2.71886   2.71999
 Alpha virt. eigenvalues --    2.72913   2.74603   2.74752   2.75269   2.76497
 Alpha virt. eigenvalues --    2.77096   2.77921   2.78999   2.81219   2.82867
 Alpha virt. eigenvalues --    2.83703   2.88280   2.91137   2.96507   2.98487
 Alpha virt. eigenvalues --    3.04874   3.05801   3.07740   3.11816   3.12366
 Alpha virt. eigenvalues --    3.16176   3.16386   3.20354   3.21770   3.26042
 Alpha virt. eigenvalues --    3.33276   3.35231   3.35995   3.48847   3.51330
 Alpha virt. eigenvalues --    3.57031   3.64945   3.71031   3.76698   3.79335
 Alpha virt. eigenvalues --    3.82194   3.91189   4.08678   4.09491   4.11245
 Alpha virt. eigenvalues --    4.36939   4.79896   4.82462   9.74706   9.76241
 Alpha virt. eigenvalues --    9.78642   9.78859   9.80416  23.38415  23.55663
 Alpha virt. eigenvalues --   23.82135  23.85421  23.88153  23.90708  23.96944
 Alpha virt. eigenvalues --   24.02670  24.03759  24.04878  24.09275  24.13634
 Alpha virt. eigenvalues --   25.77750  25.81697  25.82572  25.85878  25.88249
 Alpha virt. eigenvalues --   26.06872  26.07880  26.11898  26.17602  26.30424
 Alpha virt. eigenvalues --   26.49105  26.59523  26.61017  26.68869  26.77429
 Alpha virt. eigenvalues --  215.73757 215.75147 215.78092 215.78280 215.80360
          Condensed to atoms (all electrons):
               1          2          3          4          5          6
     1  C   23.666652  -0.617318  -3.955870   0.513481  -1.082887  -8.455172
     2  C   -0.617318  61.163583 -12.908488 -10.614299   2.226417 -30.786195
     3  C   -3.955870 -12.908488  22.661296  -0.510463  -2.996895   2.038406
     4  C    0.513481 -10.614299  -0.510463  28.237299  -1.400027  -7.699896
     5  C   -1.082887   2.226417  -2.996895  -1.400027  25.158469 -17.986703
     6  C   -8.455172 -30.786195   2.038406  -7.699896 -17.986703  71.748281
     7  C    2.184733  -0.790198   1.211525  -1.512832   3.423596  -6.647254
     8  C   -1.553111   6.284942  -1.197780  -0.479222   1.991866  -6.405455
     9  C   -2.099044   0.046113   0.012875  -0.420163   0.777434  -1.037172
    10  C    0.336022   0.092103  -0.144529   0.047290  -0.182702   0.666721
    11  C    0.050122   0.722855  -0.101819   0.199462  -0.694892   0.393333
    12  C   -2.881235  -7.710986   1.777671   0.628855  -3.540646  11.178286
    13  H    0.066488   0.089905   0.069319   0.053241  -0.003363   0.038968
    14  H    0.027108   0.049360   0.078686   0.079017   0.085672   0.024138
    15  H    0.097861   0.068852  -0.011692   0.042905   0.020370   0.173187
    16  H    0.012483   0.133866  -0.031659   0.007962  -0.018067  -0.033300
    17  H    0.012920   0.000843  -0.000459   0.000142  -0.000448  -0.001278
    18  Cl  -0.362879  -0.457307   0.067502  -0.220640   0.625814  -0.315507
    19  Cl  -0.280956   0.325252   0.075793  -0.029530  -1.125829   0.254454
    20  Cl   0.009340   0.002021   0.007032  -0.002284   0.000817  -0.007277
    21  Cl  -0.130085  -0.022514   0.051531  -0.010291   0.003842  -0.032507
    22  Cl  -0.271530   0.123006  -1.049836  -0.007923   0.044478   0.425571
               7          8          9         10         11         12
     1  C    2.184733  -1.553111  -2.099044   0.336022   0.050122  -2.881235
     2  C   -0.790198   6.284942   0.046113   0.092103   0.722855  -7.710986
     3  C    1.211525  -1.197780   0.012875  -0.144529  -0.101819   1.777671
     4  C   -1.512832  -0.479222  -0.420163   0.047290   0.199462   0.628855
     5  C    3.423596   1.991866   0.777434  -0.182702  -0.694892  -3.540646
     6  C   -6.647254  -6.405455  -1.037172   0.666721   0.393333  11.178286
     7  C   21.855446   1.689702  -4.110070  -0.669887  -2.313058  -8.581722
     8  C    1.689702  17.657742  -0.430517  -6.683978   3.422996  -7.696800
     9  C   -4.110070  -0.430517  21.688770  -4.773925  -4.766642   0.897801
    10  C   -0.669887  -6.683978  -4.773925  20.667630  -0.034989  -2.160468
    11  C   -2.313058   3.422996  -4.766642  -0.034989  18.619364  -8.208485
    12  C   -8.581722  -7.696800   0.897801  -2.160468  -8.208485  32.294899
    13  H    0.028623  -0.001290  -0.024879  -0.009010   0.012994   0.036808
    14  H    0.009443  -0.000294   0.000099  -0.000024  -0.000155  -0.001859
    15  H   -0.006318   0.003482  -0.006047   0.004336  -0.010290  -0.015375
    16  H   -0.021388   0.355412  -0.082659   0.056312  -0.014510  -0.016053
    17  H    0.096873  -0.033260   0.038828   0.002698   0.257254  -0.025828
    18  Cl   0.335529   0.013944   0.456129  -0.570003  -0.743600   0.044898
    19  Cl   0.013763   0.012282   0.001816   0.004611   0.011803  -0.013710
    20  Cl   0.118779   0.089651  -0.070496  -0.497270   0.081295  -0.358903
    21  Cl  -0.792927  -0.059865  -0.272191  -0.138792   0.076327   0.507023
    22  Cl  -0.004703   0.025641   0.019018  -0.003818  -0.003774  -0.005083
              13         14         15         16         17         18
     1  C    0.066488   0.027108   0.097861   0.012483   0.012920  -0.362879
     2  C    0.089905   0.049360   0.068852   0.133866   0.000843  -0.457307
     3  C    0.069319   0.078686  -0.011692  -0.031659  -0.000459   0.067502
     4  C    0.053241   0.079017   0.042905   0.007962   0.000142  -0.220640
     5  C   -0.003363   0.085672   0.020370  -0.018067  -0.000448   0.625814
     6  C    0.038968   0.024138   0.173187  -0.033300  -0.001278  -0.315507
     7  C    0.028623   0.009443  -0.006318  -0.021388   0.096873   0.335529
     8  C   -0.001290  -0.000294   0.003482   0.355412  -0.033260   0.013944
     9  C   -0.024879   0.000099  -0.006047  -0.082659   0.038828   0.456129
    10  C   -0.009010  -0.000024   0.004336   0.056312   0.002698  -0.570003
    11  C    0.012994  -0.000155  -0.010290  -0.014510   0.257254  -0.743600
    12  C    0.036808  -0.001859  -0.015375  -0.016053  -0.025828   0.044898
    13  H    0.502828  -0.000228  -0.000093  -0.000756   0.000002  -0.000939
    14  H   -0.000228   0.491890  -0.000218  -0.000001  -0.000000   0.000233
    15  H   -0.000093  -0.000218   0.495891   0.000017   0.000023  -0.004492
    16  H   -0.000756  -0.000001   0.000017   0.499416   0.000040  -0.000562
    17  H    0.000002  -0.000000   0.000023   0.000040   0.488766  -0.006401
    18  Cl  -0.000939   0.000233  -0.004492  -0.000562  -0.006401  17.740741
    19  Cl   0.000366  -0.007527  -0.008255  -0.000067  -0.000021   0.005583
    20  Cl  -0.000002   0.000000  -0.000070   0.000246  -0.006465  -0.033333
    21  Cl   0.000375   0.000001  -0.000158  -0.005976   0.000207   0.001198
    22  Cl  -0.012259  -0.008617   0.000320  -0.000166  -0.000002  -0.001901
              19         20         21         22
     1  C   -0.280956   0.009340  -0.130085  -0.271530
     2  C    0.325252   0.002021  -0.022514   0.123006
     3  C    0.075793   0.007032   0.051531  -1.049836
     4  C   -0.029530  -0.002284  -0.010291  -0.007923
     5  C   -1.125829   0.000817   0.003842   0.044478
     6  C    0.254454  -0.007277  -0.032507   0.425571
     7  C    0.013763   0.118779  -0.792927  -0.004703
     8  C    0.012282   0.089651  -0.059865   0.025641
     9  C    0.001816  -0.070496  -0.272191   0.019018
    10  C    0.004611  -0.497270  -0.138792  -0.003818
    11  C    0.011803   0.081295   0.076327  -0.003774
    12  C   -0.013710  -0.358903   0.507023  -0.005083
    13  H    0.000366  -0.000002   0.000375  -0.012259
    14  H   -0.007527   0.000000   0.000001  -0.008617
    15  H   -0.008255  -0.000070  -0.000158   0.000320
    16  H   -0.000067   0.000246  -0.005976  -0.000166
    17  H   -0.000021  -0.006465   0.000207  -0.000002
    18  Cl   0.005583  -0.033333   0.001198  -0.001901
    19  Cl  17.362286   0.000107   0.000046  -0.020700
    20  Cl   0.000107  17.326766  -0.158144   0.000081
    21  Cl   0.000046  -0.158144  17.441674   0.000838
    22  Cl  -0.020700   0.000081   0.000838  17.356259
 Mulliken charges:
               1
     1  C    0.712876
     2  C   -1.421811
     3  C    0.857857
     4  C   -0.902085
     5  C    0.673684
     6  C   -1.533628
     7  C    0.482347
     8  C   -1.006087
     9  C    0.154920
    10  C   -0.008331
    11  C   -0.955591
    12  C   -0.149087
    13  H    0.152900
    14  H    0.173277
    15  H    0.155764
    16  H    0.159409
    17  H    0.175566
    18  Cl   0.425992
    19  Cl   0.418434
    20  Cl   0.498110
    21  Cl   0.540387
    22  Cl   0.395099
 Sum of Mulliken charges =  -0.00000
 Mulliken charges with hydrogens summed into heavy atoms:
               1
     1  C    0.712876
     2  C   -1.268911
     3  C    0.857857
     4  C   -0.728808
     5  C    0.673684
     6  C   -1.377864
     7  C    0.482347
     8  C   -0.846678
     9  C    0.154920
    10  C   -0.008331
    11  C   -0.780025
    12  C   -0.149087
    18  Cl   0.425992
    19  Cl   0.418434
    20  Cl   0.498110
    21  Cl   0.540387
    22  Cl   0.395099
 Electronic spatial extent (au):  <R**2>=           8207.6885
 Charge=             -0.0000 electrons
 Dipole moment (field-independent basis, Debye):
    X=             -0.1410    Y=             -0.0822    Z=              0.0140  Tot=              0.1639
 Quadrupole moment (field-independent basis, Debye-Ang):
   XX=           -138.3656   YY=           -133.3202   ZZ=           -134.8164
   XY=              2.8303   XZ=              1.7159   YZ=              0.7273
 Traceless Quadrupole moment (field-independent basis, Debye-Ang):
   XX=             -2.8649   YY=              2.1805   ZZ=              0.6844
   XY=              2.8303   XZ=              1.7159   YZ=              0.7273
 Octapole moment (field-independent basis, Debye-Ang**2):
  XXX=             13.0655  YYY=             -3.4654  ZZZ=             -0.7888  XYY=            -14.7198
  XXY=             -9.1593  XXZ=             -6.5574  XZZ=             -7.6115  YZZ=             -0.1890
  YYZ=              0.2398  XYZ=             -0.2455
 Hexadecapole moment (field-independent basis, Debye-Ang**3):
 XXXX=          -7726.6823 YYYY=          -2164.0535 ZZZZ=           -850.7810 XXXY=             36.5141
 XXXZ=             14.7141 YYYX=            -29.2737 YYYZ=              5.2049 ZZZX=            -10.3025
 ZZZY=              1.8775 XXYY=          -1673.4704 XXZZ=          -1465.8732 YYZZ=           -487.9108
 XXYZ=             27.6859 YYXZ=             -3.2742 ZZXY=             -9.5362
 N-N= 1.657299030724D+03 E-N=-9.850940968815D+03  KE= 2.754123483562D+03
 1\1\GINC-CN148\FOpt\RB3LYP\6-311+G(d,p)\C12H5Cl5\20CY91R06\03-Apr-2022
 \0\\# opt b3lyp/6-311+g(d,p) scf=xqc\\Title Card Required\\0,1\C,1.162
 4366495,-0.043605471,0.0446156127\C,2.5504873319,-0.0689226491,0.21591
 73123\C,3.2672813677,1.1220492934,0.1704856497\C,2.6420411863,2.344423
 4142,-0.0465185733\C,1.2609857634,2.3467138366,-0.2190224673\C,0.51392
 37145,1.1763419216,-0.1759759121\C,0.3987948495,-1.3226701816,0.053016
 4386\C,0.729970287,-2.3135875343,-0.8777030821\C,0.0603795166,-3.53167
 71517,-0.9297659934\C,-0.9767477375,-3.7852394878,-0.0283005572\C,-1.3
 198307529,-2.8191595839,0.9126855688\C,-0.6410587085,-1.6067410896,0.9
 504892662\H,3.0649580112,-1.0032469301,0.3983615497\H,3.2097813063,3.2
 636713198,-0.0805791811\H,-0.5569619597,1.2140708698,-0.3210839134\H,1
 .5202011515,-2.1227636353,-1.592474944\H,-2.1118888034,-3.0194646966,1
 .6208655075\Cl,-1.10113418,-0.4639832682,2.2003785984\Cl,0.4457786855,
 3.8740593341,-0.5063508113\Cl,-1.8566807104,-5.2896952976,-0.042058924
 3\Cl,0.5357455274,-4.7038915336,-2.1309455837\Cl,5.0075870741,1.084781
 4709,0.3946905692\\Version=EM64L-G16RevB.01\State=1-A\HF=-2761.5225207
 \RMSD=3.188e-09\RMSF=4.716e-06\Dipole=-0.0535141,-0.0358578,0.0025441\
 Quadrupole=1.7784237,-2.5085623,0.7301386,-0.2235988,-1.5433214,-1.622
 8229\PG=C01 [X(C12H5Cl5)]\\@


 THE ATTENTION SPAN OF A COMPUTER IS AS LONG
 AS ITS EXTENSION CORD.
 Job cpu time:       0 days 12 hours 17 minutes 20.2 seconds.
 Elapsed time:       0 days  1 hours 32 minutes 41.9 seconds.
 File lengths (MBytes):  RWF=    134 Int=      0 D2E=      0 Chk=     20 Scr=      1
 Normal termination of Gaussian 16 at Sun Apr  3 12:19:00 2022.
