 Entering Gaussian System, Link 0=g16
 Input=2,3prime,4,4prime-Tetrachlorobiphenyl.gjf
 Output=2,3prime,4,4prime-Tetrachlorobiphenyl.log
 Initial command:
 /opt/g16/l1.exe "/scratch/gour/Gau-23891.inp" -scrdir="/scratch/gour/"
 Entering Link 1 = /opt/g16/l1.exe PID=     23892.
  
 Copyright (c) 1988-2017, Gaussian, Inc.  All Rights Reserved.
  
 This is part of the Gaussian(R) 16 program.  It is based on
 the Gaussian(R) 09 system (copyright 2009, Gaussian, Inc.),
 the Gaussian(R) 03 system (copyright 2003, Gaussian, Inc.),
 the Gaussian(R) 98 system (copyright 1998, Gaussian, Inc.),
 the Gaussian(R) 94 system (copyright 1995, Gaussian, Inc.),
 the Gaussian 92(TM) system (copyright 1992, Gaussian, Inc.),
 the Gaussian 90(TM) system (copyright 1990, Gaussian, Inc.),
 the Gaussian 88(TM) system (copyright 1988, Gaussian, Inc.),
 the Gaussian 86(TM) system (copyright 1986, Carnegie Mellon
 University), and the Gaussian 82(TM) system (copyright 1983,
 Carnegie Mellon University). Gaussian is a federally registered
 trademark of Gaussian, Inc.
  
 This software contains proprietary and confidential information,
 including trade secrets, belonging to Gaussian, Inc.
  
 This software is provided under written license and may be
 used, copied, transmitted, or stored only in accord with that
 written license.
  
 The following legend is applicable only to US Government
 contracts under FAR:
  
                    RESTRICTED RIGHTS LEGEND
  
 Use, reproduction and disclosure by the US Government is
 subject to restrictions as set forth in subparagraphs (a)
 and (c) of the Commercial Computer Software - Restricted
 Rights clause in FAR 52.227-19.
  
 Gaussian, Inc.
 340 Quinnipiac St., Bldg. 40, Wallingford CT 06492
  
  
 ---------------------------------------------------------------
 Warning -- This program may not be used in any manner that
 competes with the business of Gaussian, Inc. or will provide
 assistance to any competitor of Gaussian, Inc.  The licensee
 of this program is prohibited from giving any competitor of
 Gaussian, Inc. access to this program.  By using this program,
 the user acknowledges that Gaussian, Inc. is engaged in the
 business of creating and licensing software in the field of
 computational chemistry and represents and warrants to the
 licensee that it is not a competitor of Gaussian, Inc. and that
 it will not use this program in any manner prohibited above.
 ---------------------------------------------------------------
  

 Cite this work as:
 Gaussian 16, Revision B.01,
 M. J. Frisch, G. W. Trucks, H. B. Schlegel, G. E. Scuseria, 
 M. A. Robb, J. R. Cheeseman, G. Scalmani, V. Barone, 
 G. A. Petersson, H. Nakatsuji, X. Li, M. Caricato, A. V. Marenich, 
 J. Bloino, B. G. Janesko, R. Gomperts, B. Mennucci, H. P. Hratchian, 
 J. V. Ortiz, A. F. Izmaylov, J. L. Sonnenberg, D. Williams-Young, 
 F. Ding, F. Lipparini, F. Egidi, J. Goings, B. Peng, A. Petrone, 
 T. Henderson, D. Ranasinghe, V. G. Zakrzewski, J. Gao, N. Rega, 
 G. Zheng, W. Liang, M. Hada, M. Ehara, K. Toyota, R. Fukuda, 
 J. Hasegawa, M. Ishida, T. Nakajima, Y. Honda, O. Kitao, H. Nakai, 
 T. Vreven, K. Throssell, J. A. Montgomery, Jr., J. E. Peralta, 
 F. Ogliaro, M. J. Bearpark, J. J. Heyd, E. N. Brothers, K. N. Kudin, 
 V. N. Staroverov, T. A. Keith, R. Kobayashi, J. Normand, 
 K. Raghavachari, A. P. Rendell, J. C. Burant, S. S. Iyengar, 
 J. Tomasi, M. Cossi, J. M. Millam, M. Klene, C. Adamo, R. Cammi, 
 J. W. Ochterski, R. L. Martin, K. Morokuma, O. Farkas, 
 J. B. Foresman, and D. J. Fox, Gaussian, Inc., Wallingford CT, 2016.
 
 ******************************************
 Gaussian 16:  EM64L-G16RevB.01 20-Dec-2017
                15-Mar-2022 
 ******************************************
 %mem=10GB
 %nprocshared=4
 Will use up to    4 processors via shared memory.
 --------------------------------
 # opt b3lyp/6-311+g(d,p) scf=xqc
 --------------------------------
 1/18=20,19=15,26=3,38=1/1,3;
 2/9=110,12=2,17=6,18=5,40=1/2;
 3/5=4,6=6,7=111,11=2,25=1,30=1,71=1,74=-5/1,2,3;
 4//1;
 5/5=2,8=3,13=1,38=5/2,8;
 6/7=2,8=2,9=2,10=2,28=1/1;
 7//1,2,3,16;
 1/18=20,19=15,26=3/3(2);
 2/9=110/2;
 99//99;
 2/9=110/2;
 3/5=4,6=6,7=111,11=2,25=1,30=1,71=1,74=-5/1,2,3;
 4/5=5,16=3,69=1/1;
 5/5=2,8=3,13=1,38=5/2,8;
 7//1,2,3,16;
 1/18=20,19=15,26=3/3(-5);
 2/9=110/2;
 6/7=2,8=2,9=2,10=2,19=2,28=1/1;
 99/9=1/99;
 -------------------
 Title Card Required
 -------------------
 Symbolic Z-matrix:
 Charge =  0 Multiplicity = 1
 C                    -0.8631    1.87116   0.71998 
 C                     0.46928   1.90104   0.28664 
 C                     1.17718   3.11049   0.28057 
 C                     0.55269   4.29006   0.70784 
 C                    -0.77969   4.26017   1.14118 
 C                    -1.48758   3.05072   1.14726 
 C                    -1.641     0.54209   0.72666 
 C                    -1.01651  -0.63748   0.29938 
 C                    -1.72441  -1.84693   0.30546 
 C                    -3.05679  -1.87681   0.73881 
 C                    -3.68127  -0.69725   1.16608 
 C                    -2.97338   0.5122    1.16001 
 H                     0.9461    1.00042  -0.03959 
 H                     2.19448   3.13331  -0.0503 
 H                    -2.50489   3.0279    1.47813 
 H                     0.00079  -0.61466  -0.03149 
 H                    -1.2476   -2.74755  -0.02078 
 H                    -4.69858  -0.72007   1.49696 
 Cl                   -3.75767   1.9936    1.69662 
 Cl                   -1.56398   5.74157   1.67779 
 Cl                   -3.94582  -3.39575   0.74644 
 Cl                    1.44173   5.80899   0.70021 
 

 GradGradGradGradGradGradGradGradGradGradGradGradGradGradGradGradGradGrad
 Berny optimization.
 Initialization pass.
                           ----------------------------
                           !    Initial Parameters    !
                           ! (Angstroms and Degrees)  !
 --------------------------                            --------------------------
 ! Name  Definition              Value          Derivative Info.                !
 --------------------------------------------------------------------------------
 ! R1    R(1,2)                  1.4014         estimate D2E/DX2                !
 ! R2    R(1,6)                  1.4014         estimate D2E/DX2                !
 ! R3    R(1,7)                  1.54           estimate D2E/DX2                !
 ! R4    R(2,3)                  1.4014         estimate D2E/DX2                !
 ! R5    R(2,13)                 1.07           estimate D2E/DX2                !
 ! R6    R(3,4)                  1.4014         estimate D2E/DX2                !
 ! R7    R(3,14)                 1.07           estimate D2E/DX2                !
 ! R8    R(4,5)                  1.4014         estimate D2E/DX2                !
 ! R9    R(4,22)                 1.76           estimate D2E/DX2                !
 ! R10   R(5,6)                  1.4014         estimate D2E/DX2                !
 ! R11   R(5,20)                 1.76           estimate D2E/DX2                !
 ! R12   R(6,15)                 1.07           estimate D2E/DX2                !
 ! R13   R(7,8)                  1.4014         estimate D2E/DX2                !
 ! R14   R(7,12)                 1.4014         estimate D2E/DX2                !
 ! R15   R(8,9)                  1.4014         estimate D2E/DX2                !
 ! R16   R(8,16)                 1.07           estimate D2E/DX2                !
 ! R17   R(9,10)                 1.4014         estimate D2E/DX2                !
 ! R18   R(9,17)                 1.07           estimate D2E/DX2                !
 ! R19   R(10,11)                1.4014         estimate D2E/DX2                !
 ! R20   R(10,21)                1.76           estimate D2E/DX2                !
 ! R21   R(11,12)                1.4014         estimate D2E/DX2                !
 ! R22   R(11,18)                1.07           estimate D2E/DX2                !
 ! R23   R(12,19)                1.76           estimate D2E/DX2                !
 ! A1    A(2,1,6)              120.0            estimate D2E/DX2                !
 ! A2    A(2,1,7)              120.0            estimate D2E/DX2                !
 ! A3    A(6,1,7)              120.0            estimate D2E/DX2                !
 ! A4    A(1,2,3)              120.0            estimate D2E/DX2                !
 ! A5    A(1,2,13)             120.0            estimate D2E/DX2                !
 ! A6    A(3,2,13)             120.0            estimate D2E/DX2                !
 ! A7    A(2,3,4)              120.0            estimate D2E/DX2                !
 ! A8    A(2,3,14)             120.0            estimate D2E/DX2                !
 ! A9    A(4,3,14)             120.0            estimate D2E/DX2                !
 ! A10   A(3,4,5)              120.0            estimate D2E/DX2                !
 ! A11   A(3,4,22)             120.0            estimate D2E/DX2                !
 ! A12   A(5,4,22)             120.0            estimate D2E/DX2                !
 ! A13   A(4,5,6)              120.0            estimate D2E/DX2                !
 ! A14   A(4,5,20)             120.0            estimate D2E/DX2                !
 ! A15   A(6,5,20)             120.0            estimate D2E/DX2                !
 ! A16   A(1,6,5)              120.0            estimate D2E/DX2                !
 ! A17   A(1,6,15)             120.0            estimate D2E/DX2                !
 ! A18   A(5,6,15)             120.0            estimate D2E/DX2                !
 ! A19   A(1,7,8)              120.0            estimate D2E/DX2                !
 ! A20   A(1,7,12)             120.0            estimate D2E/DX2                !
 ! A21   A(8,7,12)             120.0            estimate D2E/DX2                !
 ! A22   A(7,8,9)              120.0            estimate D2E/DX2                !
 ! A23   A(7,8,16)             120.0            estimate D2E/DX2                !
 ! A24   A(9,8,16)             120.0            estimate D2E/DX2                !
 ! A25   A(8,9,10)             120.0            estimate D2E/DX2                !
 ! A26   A(8,9,17)             120.0            estimate D2E/DX2                !
 ! A27   A(10,9,17)            120.0            estimate D2E/DX2                !
 ! A28   A(9,10,11)            120.0            estimate D2E/DX2                !
 ! A29   A(9,10,21)            120.0            estimate D2E/DX2                !
 ! A30   A(11,10,21)           120.0            estimate D2E/DX2                !
 ! A31   A(10,11,12)           120.0            estimate D2E/DX2                !
 ! A32   A(10,11,18)           120.0            estimate D2E/DX2                !
 ! A33   A(12,11,18)           120.0            estimate D2E/DX2                !
 ! A34   A(7,12,11)            120.0            estimate D2E/DX2                !
 ! A35   A(7,12,19)            120.0            estimate D2E/DX2                !
 ! A36   A(11,12,19)           120.0            estimate D2E/DX2                !
 ! D1    D(6,1,2,3)              0.0001         estimate D2E/DX2                !
 ! D2    D(6,1,2,13)           180.0            estimate D2E/DX2                !
 ! D3    D(7,1,2,3)           -180.0            estimate D2E/DX2                !
 ! D4    D(7,1,2,13)            -0.0001         estimate D2E/DX2                !
 ! D5    D(2,1,6,5)             -0.0001         estimate D2E/DX2                !
 ! D6    D(2,1,6,15)           180.0            estimate D2E/DX2                !
 ! D7    D(7,1,6,5)            180.0            estimate D2E/DX2                !
 ! D8    D(7,1,6,15)             0.0            estimate D2E/DX2                !
 ! D9    D(2,1,7,8)             -0.0001         estimate D2E/DX2                !
 ! D10   D(2,1,7,12)           179.9998         estimate D2E/DX2                !
 ! D11   D(6,1,7,8)            179.9999         estimate D2E/DX2                !
 ! D12   D(6,1,7,12)            -0.0002         estimate D2E/DX2                !
 ! D13   D(1,2,3,4)              0.0            estimate D2E/DX2                !
 ! D14   D(1,2,3,14)           180.0            estimate D2E/DX2                !
 ! D15   D(13,2,3,4)          -179.9999         estimate D2E/DX2                !
 ! D16   D(13,2,3,14)            0.0001         estimate D2E/DX2                !
 ! D17   D(2,3,4,5)             -0.0001         estimate D2E/DX2                !
 ! D18   D(2,3,4,22)           180.0            estimate D2E/DX2                !
 ! D19   D(14,3,4,5)           179.9999         estimate D2E/DX2                !
 ! D20   D(14,3,4,22)            0.0            estimate D2E/DX2                !
 ! D21   D(3,4,5,6)              0.0001         estimate D2E/DX2                !
 ! D22   D(3,4,5,20)          -179.9999         estimate D2E/DX2                !
 ! D23   D(22,4,5,6)          -180.0            estimate D2E/DX2                !
 ! D24   D(22,4,5,20)            0.0            estimate D2E/DX2                !
 ! D25   D(4,5,6,1)              0.0            estimate D2E/DX2                !
 ! D26   D(4,5,6,15)           179.9999         estimate D2E/DX2                !
 ! D27   D(20,5,6,1)           180.0            estimate D2E/DX2                !
 ! D28   D(20,5,6,15)           -0.0001         estimate D2E/DX2                !
 ! D29   D(1,7,8,9)            179.9999         estimate D2E/DX2                !
 ! D30   D(1,7,8,16)             0.0001         estimate D2E/DX2                !
 ! D31   D(12,7,8,9)             0.0001         estimate D2E/DX2                !
 ! D32   D(12,7,8,16)         -179.9998         estimate D2E/DX2                !
 ! D33   D(1,7,12,11)         -179.9999         estimate D2E/DX2                !
 ! D34   D(1,7,12,19)            0.0            estimate D2E/DX2                !
 ! D35   D(8,7,12,11)           -0.0001         estimate D2E/DX2                !
 ! D36   D(8,7,12,19)          179.9999         estimate D2E/DX2                !
 ! D37   D(7,8,9,10)             0.0            estimate D2E/DX2                !
 ! D38   D(7,8,9,17)           180.0            estimate D2E/DX2                !
 ! D39   D(16,8,9,10)          179.9998         estimate D2E/DX2                !
 ! D40   D(16,8,9,17)           -0.0002         estimate D2E/DX2                !
 ! D41   D(8,9,10,11)            0.0            estimate D2E/DX2                !
 ! D42   D(8,9,10,21)         -179.9999         estimate D2E/DX2                !
 ! D43   D(17,9,10,11)         180.0            estimate D2E/DX2                !
 ! D44   D(17,9,10,21)           0.0001         estimate D2E/DX2                !
 ! D45   D(9,10,11,12)           0.0            estimate D2E/DX2                !
 ! D46   D(9,10,11,18)        -179.9998         estimate D2E/DX2                !
 ! D47   D(21,10,11,12)        179.9999         estimate D2E/DX2                !
 ! D48   D(21,10,11,18)          0.0001         estimate D2E/DX2                !
 ! D49   D(10,11,12,7)           0.0            estimate D2E/DX2                !
 ! D50   D(10,11,12,19)       -179.9999         estimate D2E/DX2                !
 ! D51   D(18,11,12,7)         179.9999         estimate D2E/DX2                !
 ! D52   D(18,11,12,19)         -0.0001         estimate D2E/DX2                !
 --------------------------------------------------------------------------------
 Trust Radius=3.00D-01 FncErr=1.00D-07 GrdErr=1.00D-06 EigMax=2.50D+02 EigMin=1.00D-04
 Number of steps in this run=    121 maximum allowed number of steps=    132.
 GradGradGradGradGradGradGradGradGradGradGradGradGradGradGradGradGradGrad

                          Input orientation:                          
 ---------------------------------------------------------------------
 Center     Atomic      Atomic             Coordinates (Angstroms)
 Number     Number       Type             X           Y           Z
 ---------------------------------------------------------------------
      1          6           0       -0.863097    1.871156    0.719984
      2          6           0        0.469285    1.901042    0.286637
      3          6           0        1.177178    3.110493    0.280565
      4          6           0        0.552691    4.290058    0.707840
      5          6           0       -0.779691    4.260172    1.141185
      6          6           0       -1.487585    3.050721    1.147257
      7          6           0       -1.641001    0.542089    0.726658
      8          6           0       -1.016514   -0.637476    0.299383
      9          6           0       -1.724407   -1.846928    0.305457
     10          6           0       -3.056787   -1.876814    0.738807
     11          6           0       -3.681274   -0.697249    1.166083
     12          6           0       -2.973381    0.512202    1.160008
     13          1           0        0.946095    1.000417   -0.039594
     14          1           0        2.194481    3.133311   -0.050304
     15          1           0       -2.504887    3.027903    1.478126
     16          1           0        0.000789   -0.614658   -0.031487
     17          1           0       -1.247597   -2.747552   -0.020777
     18          1           0       -4.698575   -0.720069    1.496957
     19         17           0       -3.757666    1.993602    1.696620
     20         17           0       -1.563978    5.741574    1.677790
     21         17           0       -3.945820   -3.395749    0.746439
     22         17           0        1.441725    5.808992    0.700214
 ---------------------------------------------------------------------
                    Distance matrix (angstroms):
                    1          2          3          4          5
     1  C    0.000000
     2  C    1.401400   0.000000
     3  C    2.427296   1.401400   0.000000
     4  C    2.802800   2.427296   1.401400   0.000000
     5  C    2.427296   2.802800   2.427296   1.401400   0.000000
     6  C    1.401400   2.427296   2.802800   2.427296   1.401400
     7  C    1.540000   2.548270   3.838989   4.342800   3.838989
     8  C    2.548270   2.941400   4.342800   5.187469   4.975106
     9  C    3.838989   4.342800   5.744200   6.558176   6.235992
    10  C    4.342800   5.187469   6.558176   7.145600   6.558176
    11  C    3.838989   4.975106   6.235992   6.558176   5.744200
    12  C    2.548270   3.813607   4.975106   5.187469   4.342800
    13  H    2.146700   1.070000   2.146700   3.396345   3.872800
    14  H    3.396345   2.146700   1.070000   2.146700   3.396345
    15  H    2.146700   3.396345   3.872800   3.396345   2.146700
    16  H    2.736837   2.578650   3.918930   4.990735   5.074276
    17  H    4.693509   4.965039   6.347206   7.300676   7.118798
    18  H    4.693509   5.919617   7.118798   7.300676   6.347206
    19  Cl   3.057342   4.456874   5.254079   4.983028   3.783409
    20  Cl   4.048303   4.562800   4.048303   2.743718   1.760000
    21  Cl   6.102800   6.910901   8.294174   8.905600   8.294174
    22  Cl   4.562800   4.048303   2.743718   1.760000   2.743718
                    6          7          8          9         10
     6  C    0.000000
     7  C    2.548270   0.000000
     8  C    3.813607   1.401400   0.000000
     9  C    4.975106   2.427296   1.401400   0.000000
    10  C    5.187469   2.802800   2.427296   1.401400   0.000000
    11  C    4.342800   2.427296   2.802800   2.427296   1.401400
    12  C    2.941400   1.401400   2.427296   2.802800   2.427296
    13  H    3.396345   2.736837   2.578650   3.918930   4.990735
    14  H    3.872800   4.693509   4.965039   6.347206   7.300676
    15  H    1.070000   2.736837   4.127917   5.074276   4.990735
    16  H    4.127917   2.146700   1.070000   2.146700   3.396345
    17  H    5.919617   3.396345   2.146700   1.070000   2.146700
    18  H    4.965039   3.396345   3.872800   3.396345   2.146700
    19  Cl   2.563702   2.743718   4.048303   4.562800   4.048303
    20  Cl   2.743718   5.286324   6.549198   7.713260   7.819846
    21  Cl   6.910901   4.562800   4.048303   2.743718   1.760000
    22  Cl   4.048303   6.102800   6.910901   8.294174   8.905600
                   11         12         13         14         15
    11  C    0.000000
    12  C    1.401400   0.000000
    13  H    5.074276   4.127917   0.000000
    14  H    7.118798   5.919617   2.471400   0.000000
    15  H    3.918930   2.578650   4.280590   4.942800   0.000000
    16  H    3.872800   3.396345   1.871400   4.342800   4.671787
    17  H    3.396345   3.872800   4.342800   6.814200   6.097816
    18  H    1.070000   2.146700   6.097816   8.047159   4.342800
    19  Cl   2.743718   1.760000   5.111382   6.307038   1.639199
    20  Cl   6.797295   5.440665   5.632800   4.890332   2.879094
    21  Cl   2.743718   4.048303   6.623817   8.998151   6.623817
    22  Cl   8.294174   6.910901   4.890332   2.879094   4.890332
                   16         17         18         19         20
    16  H    0.000000
    17  H    2.471400   0.000000
    18  H    4.942800   4.280590   0.000000
    19  Cl   4.890332   5.632800   2.879094   0.000000
    20  Cl   6.765486   8.663168   7.184095   4.342800   0.000000
    21  Cl   4.890333   2.879094   2.879094   5.475705   9.488480
    22  Cl   6.623817   8.998151   8.998151   6.525618   3.161400
                   21         22
    21  Cl   0.000000
    22  Cl  10.665600   0.000000
 Stoichiometry    C12H6Cl4
 Framework group  C1[X(C12H6Cl4)]
 Deg. of freedom    60
 Full point group                 C1      NOp   1
 Largest Abelian subgroup         C1      NOp   1
 Largest concise Abelian subgroup C1      NOp   1
                         Standard orientation:                         
 ---------------------------------------------------------------------
 Center     Atomic      Atomic             Coordinates (Angstroms)
 Number     Number       Type             X           Y           Z
 ---------------------------------------------------------------------
      1          6           0       -0.367794   -0.640407    0.000002
      2          6           0       -0.967136   -1.907179    0.000001
      3          6           0       -2.363864   -2.021520   -0.000001
      4          6           0       -3.161250   -0.869088   -0.000002
      5          6           0       -2.561908    0.397684    0.000002
      6          6           0       -1.165180    0.512025    0.000003
      7          6           0        1.167071   -0.514757    0.000003
      8          6           0        1.964457   -1.667189    0.000004
      9          6           0        3.361185   -1.552848    0.000003
     10          6           0        3.960526   -0.286076    0.000001
     11          6           0        3.163141    0.866355   -0.000000
     12          6           0        1.766413    0.752015    0.000000
     13          1           0       -0.358314   -2.787086   -0.000001
     14          1           0       -2.821474   -2.988728   -0.000002
     15          1           0       -0.707570    1.479233    0.000005
     16          1           0        1.506846   -2.634397    0.000003
     17          1           0        3.970007   -2.432755    0.000004
     18          1           0        3.620751    1.833564   -0.000005
     19         17           0        0.764986    2.199338   -0.000004
     20         17           0       -3.563334    1.845007    0.000004
     21         17           0        5.714659   -0.142477   -0.000002
     22         17           0       -4.915382   -1.012688   -0.000004
 ---------------------------------------------------------------------
 Rotational constants (GHZ):           0.9126747           0.1517630           0.1301253
 Standard basis: 6-311+G(d,p) (5D, 7F)
 There are   436 symmetry adapted cartesian basis functions of A   symmetry.
 There are   420 symmetry adapted basis functions of A   symmetry.
   420 basis functions,   692 primitive gaussians,   436 cartesian basis functions
    73 alpha electrons       73 beta electrons
       nuclear repulsion energy      1415.8842561391 Hartrees.
 NAtoms=   22 NActive=   22 NUniq=   22 SFac= 1.00D+00 NAtFMM=   60 NAOKFM=F Big=F
 Integral buffers will be    131072 words long.
 Raffenetti 2 integral format.
 Two-electron integral symmetry is turned on.
 One-electron integrals computed using PRISM.
 NBasis=   420 RedAO= T EigKep=  1.11D-06  NBF=   420
 NBsUse=   415 1.00D-06 EigRej=  6.91D-07 NBFU=   415
 ExpMin= 4.38D-02 ExpMax= 1.06D+05 ExpMxC= 3.62D+03 IAcc=3 IRadAn=         5 AccDes= 0.00D+00
 Harris functional with IExCor=  402 and IRadAn=       5 diagonalized for initial guess.
 HarFok:  IExCor=  402 AccDes= 0.00D+00 IRadAn=         5 IDoV= 1 UseB2=F ITyADJ=14
 ICtDFT=  3500011 ScaDFX=  1.000000  1.000000  1.000000  1.000000
 FoFCou: FMM=F IPFlag=           0 FMFlag=      100000 FMFlg1=           0
         NFxFlg=           0 DoJE=T BraDBF=F KetDBF=T FulRan=T
         wScrn=  0.000000 ICntrl=       500 IOpCl=  0 I1Cent=   200000004 NGrid=           0
         NMat0=    1 NMatS0=      1 NMatT0=    0 NMatD0=    1 NMtDS0=    0 NMtDT0=    0
 Petite list used in FoFCou.
 Requested convergence on RMS density matrix=1.00D-08 within  32 cycles.
 Requested convergence on MAX density matrix=1.00D-06.
 Requested convergence on             energy=1.00D-06.
 No special actions if energy rises.
 SCF Done:  E(RB3LYP) =  -2301.84212305     A.U. after   16 cycles
            NFock= 16  Conv=0.48D-08     -V/T= 2.0027
 QCSCF skips out because SCF is already converged.

 **********************************************************************

            Population analysis using the SCF Density.

 **********************************************************************

 Orbital symmetries:
       Occupied  (A) (A) (A) (A) (A) (A) (A) (A) (A) (A) (A) (A)
                 (A) (A) (A) (A) (A) (A) (A) (A) (A) (A) (A) (A)
                 (A) (A) (A) (A) (A) (A) (A) (A) (A) (A) (A) (A)
                 (A) (A) (A) (A) (A) (A) (A) (A) (A) (A) (A) (A)
                 (A) (A) (A) (A) (A) (A) (A) (A) (A) (A) (A) (A)
                 (A) (A) (A) (A) (A) (A) (A) (A) (A) (A) (A) (A)
                 (A)
       Virtual   (A) (A) (A) (A) (A) (A) (A) (A) (A) (A) (A) (A)
                 (A) (A) (A) (A) (A) (A) (A) (A) (A) (A) (A) (A)
                 (A) (A) (A) (A) (A) (A) (A) (A) (A) (A) (A) (A)
                 (A) (A) (A) (A) (A) (A) (A) (A) (A) (A) (A) (A)
                 (A) (A) (A) (A) (A) (A) (A) (A) (A) (A) (A) (A)
                 (A) (A) (A) (A) (A) (A) (A) (A) (A) (A) (A) (A)
                 (A) (A) (A) (A) (A) (A) (A) (A) (A) (A) (A) (A)
                 (A) (A) (A) (A) (A) (A) (A) (A) (A) (A) (A) (A)
                 (A) (A) (A) (A) (A) (A) (A) (A) (A) (A) (A) (A)
                 (A) (A) (A) (A) (A) (A) (A) (A) (A) (A) (A) (A)
                 (A) (A) (A) (A) (A) (A) (A) (A) (A) (A) (A) (A)
                 (A) (A) (A) (A) (A) (A) (A) (A) (A) (A) (A) (A)
                 (A) (A) (A) (A) (A) (A) (A) (A) (A) (A) (A) (A)
                 (A) (A) (A) (A) (A) (A) (A) (A) (A) (A) (A) (A)
                 (A) (A) (A) (A) (A) (A) (A) (A) (A) (A) (A) (A)
                 (A) (A) (A) (A) (A) (A) (A) (A) (A) (A) (A) (A)
                 (A) (A) (A) (A) (A) (A) (A) (A) (A) (A) (A) (A)
                 (A) (A) (A) (A) (A) (A) (A) (A) (A) (A) (A) (A)
                 (A) (A) (A) (A) (A) (A) (A) (A) (A) (A) (A) (A)
                 (A) (A) (A) (A) (A) (A) (A) (A) (A) (A) (A) (A)
                 (A) (A) (A) (A) (A) (A) (A) (A) (A) (A) (A) (A)
                 (A) (A) (A) (A) (A) (A) (A) (A) (A) (A) (A) (A)
                 (A) (A) (A) (A) (A) (A) (A) (A) (A) (A) (A) (A)
                 (A) (A) (A) (A) (A) (A) (A) (A) (A) (A) (A) (A)
                 (A) (A) (A) (A) (A) (A) (A) (A) (A) (A) (A) (A)
                 (A) (A) (A) (A) (A) (A) (A) (A) (A) (A) (A) (A)
                 (A) (A) (A) (A) (A) (A) (A) (A) (A) (A) (A) (A)
                 (A) (A) (A) (A) (A) (A) (A) (A) (A) (A) (A) (A)
                 (A) (A) (A) (A) (A) (A)
 The electronic state is 1-A.
 Alpha  occ. eigenvalues -- -101.58085-101.57476-101.56365-101.56313 -10.27276
 Alpha  occ. eigenvalues --  -10.26815 -10.25933 -10.25709 -10.23090 -10.22086
 Alpha  occ. eigenvalues --  -10.21985 -10.21606 -10.21495 -10.20824 -10.20447
 Alpha  occ. eigenvalues --  -10.18514  -9.49867  -9.48901  -9.47804  -9.47756
 Alpha  occ. eigenvalues --   -7.26269  -7.25379  -7.25315  -7.25305  -7.24377
 Alpha  occ. eigenvalues --   -7.24344  -7.24282  -7.24232  -7.23292  -7.23242
 Alpha  occ. eigenvalues --   -7.23232  -7.23186  -0.93969  -0.92068  -0.90315
 Alpha  occ. eigenvalues --   -0.86436  -0.86208  -0.84787  -0.78888  -0.77494
 Alpha  occ. eigenvalues --   -0.76192  -0.73348  -0.66125  -0.64122  -0.63453
 Alpha  occ. eigenvalues --   -0.60559  -0.55367  -0.53245  -0.52206  -0.50224
 Alpha  occ. eigenvalues --   -0.49329  -0.48538  -0.46581  -0.45742  -0.45517
 Alpha  occ. eigenvalues --   -0.44337  -0.42317  -0.41939  -0.40973  -0.39764
 Alpha  occ. eigenvalues --   -0.39071  -0.38643  -0.36303  -0.35279  -0.34062
 Alpha  occ. eigenvalues --   -0.34000  -0.33716  -0.31388  -0.29376  -0.29274
 Alpha  occ. eigenvalues --   -0.28441  -0.26896  -0.24728
 Alpha virt. eigenvalues --   -0.07265  -0.05844  -0.03908  -0.02765  -0.01567
 Alpha virt. eigenvalues --   -0.01235  -0.00807   0.00476   0.00732   0.01461
 Alpha virt. eigenvalues --    0.02643   0.03247   0.03351   0.04116   0.04369
 Alpha virt. eigenvalues --    0.05567   0.05664   0.06189   0.06543   0.06592
 Alpha virt. eigenvalues --    0.06914   0.08187   0.08257   0.08587   0.08912
 Alpha virt. eigenvalues --    0.09434   0.09944   0.10198   0.10436   0.11388
 Alpha virt. eigenvalues --    0.11550   0.11978   0.12659   0.12825   0.13411
 Alpha virt. eigenvalues --    0.13708   0.13823   0.13888   0.14001   0.14542
 Alpha virt. eigenvalues --    0.15449   0.16081   0.16528   0.17099   0.17166
 Alpha virt. eigenvalues --    0.17645   0.17753   0.18578   0.18945   0.19101
 Alpha virt. eigenvalues --    0.19199   0.19461   0.19761   0.20003   0.20364
 Alpha virt. eigenvalues --    0.21016   0.21355   0.21976   0.22219   0.22470
 Alpha virt. eigenvalues --    0.22913   0.23740   0.23860   0.24407   0.25120
 Alpha virt. eigenvalues --    0.25610   0.26186   0.26436   0.26866   0.27340
 Alpha virt. eigenvalues --    0.27820   0.28247   0.28642   0.30190   0.30891
 Alpha virt. eigenvalues --    0.31349   0.32474   0.33005   0.33124   0.34068
 Alpha virt. eigenvalues --    0.34933   0.35948   0.37466   0.38429   0.40121
 Alpha virt. eigenvalues --    0.41900   0.43134   0.43269   0.43641   0.44590
 Alpha virt. eigenvalues --    0.44981   0.45425   0.45463   0.46752   0.47721
 Alpha virt. eigenvalues --    0.48520   0.48543   0.49633   0.50077   0.50834
 Alpha virt. eigenvalues --    0.51027   0.52282   0.53330   0.53539   0.54701
 Alpha virt. eigenvalues --    0.55271   0.56377   0.57059   0.57340   0.58348
 Alpha virt. eigenvalues --    0.58959   0.59162   0.60686   0.60823   0.61559
 Alpha virt. eigenvalues --    0.62005   0.63146   0.64404   0.64925   0.65667
 Alpha virt. eigenvalues --    0.66882   0.67038   0.67246   0.67983   0.68137
 Alpha virt. eigenvalues --    0.68459   0.71445   0.74566   0.75514   0.77629
 Alpha virt. eigenvalues --    0.78736   0.80374   0.81750   0.82095   0.82770
 Alpha virt. eigenvalues --    0.83027   0.83451   0.83949   0.84349   0.84710
 Alpha virt. eigenvalues --    0.85154   0.85687   0.85813   0.86379   0.86580
 Alpha virt. eigenvalues --    0.87931   0.88512   0.88709   0.88783   0.90263
 Alpha virt. eigenvalues --    0.91093   0.92202   0.92411   0.92483   0.93499
 Alpha virt. eigenvalues --    0.93950   0.94848   0.95219   0.95419   0.96738
 Alpha virt. eigenvalues --    0.97251   0.98050   0.98687   0.99130   0.99937
 Alpha virt. eigenvalues --    1.02848   1.03452   1.06126   1.06561   1.07154
 Alpha virt. eigenvalues --    1.07626   1.09330   1.09968   1.11471   1.11707
 Alpha virt. eigenvalues --    1.16898   1.18564   1.21958   1.22338   1.23733
 Alpha virt. eigenvalues --    1.25989   1.26093   1.27257   1.28199   1.29276
 Alpha virt. eigenvalues --    1.29501   1.32159   1.34936   1.36919   1.39259
 Alpha virt. eigenvalues --    1.43928   1.45758   1.47124   1.50168   1.51551
 Alpha virt. eigenvalues --    1.52980   1.53260   1.54804   1.55445   1.57115
 Alpha virt. eigenvalues --    1.59109   1.59869   1.62899   1.63788   1.66700
 Alpha virt. eigenvalues --    1.68363   1.68855   1.69101   1.72331   1.74607
 Alpha virt. eigenvalues --    1.75477   1.80201   1.81514   1.83515   1.84873
 Alpha virt. eigenvalues --    1.85214   1.87371   1.89249   1.90235   1.92202
 Alpha virt. eigenvalues --    1.92729   1.92966   1.94700   1.94848   1.97609
 Alpha virt. eigenvalues --    1.98348   1.99133   2.01307   2.02080   2.06021
 Alpha virt. eigenvalues --    2.07369   2.07729   2.12017   2.14460   2.18679
 Alpha virt. eigenvalues --    2.21459   2.23700   2.24517   2.25143   2.26117
 Alpha virt. eigenvalues --    2.26864   2.27333   2.29193   2.30986   2.33298
 Alpha virt. eigenvalues --    2.34901   2.35399   2.39075   2.40981   2.42922
 Alpha virt. eigenvalues --    2.44459   2.47479   2.50331   2.51977   2.53900
 Alpha virt. eigenvalues --    2.54923   2.55987   2.59701   2.60546   2.60733
 Alpha virt. eigenvalues --    2.62967   2.63090   2.63939   2.67373   2.70148
 Alpha virt. eigenvalues --    2.71449   2.73018   2.73271   2.73732   2.74840
 Alpha virt. eigenvalues --    2.77245   2.78465   2.78949   2.81114   2.81848
 Alpha virt. eigenvalues --    2.83538   2.84813   2.86115   2.90809   2.92875
 Alpha virt. eigenvalues --    2.95458   3.03126   3.04866   3.06520   3.08942
 Alpha virt. eigenvalues --    3.13673   3.16083   3.17004   3.19587   3.22729
 Alpha virt. eigenvalues --    3.24075   3.32342   3.36723   3.39552   3.42133
 Alpha virt. eigenvalues --    3.52074   3.54150   3.56673   3.65772   3.71495
 Alpha virt. eigenvalues --    3.78518   3.84589   3.88754   4.05936   4.09220
 Alpha virt. eigenvalues --    4.15431   4.19517   4.45453   4.79199   4.83120
 Alpha virt. eigenvalues --    9.75223   9.76408   9.80467   9.87340  23.41471
 Alpha virt. eigenvalues --   23.55432  23.82232  23.85707  23.89570  23.90906
 Alpha virt. eigenvalues --   23.97439  24.00041  24.02367  24.05485  24.10347
 Alpha virt. eigenvalues --   24.12565  25.78248  25.81145  25.83411  25.87498
 Alpha virt. eigenvalues --   26.09746  26.12514  26.17600  26.51783  26.57629
 Alpha virt. eigenvalues --   26.66881  26.76931  26.79505 215.74207 215.75430
 Alpha virt. eigenvalues --  215.80083 215.89764
          Condensed to atoms (all electrons):
               1          2          3          4          5          6
     1  C   17.481264  -1.275977  -0.708707  -3.663854  -3.692111   1.870560
     2  C   -1.275977  20.129446   0.653177   0.956191  -4.265065  -5.686660
     3  C   -0.708707   0.653177  13.929349   0.689987  -4.741733  -1.348165
     4  C   -3.663854   0.956191   0.689987  23.448223  -5.027326  -9.193710
     5  C   -3.692111  -4.265065  -4.741733  -5.027326  21.354917   4.042751
     6  C    1.870560  -5.686660  -1.348165  -9.193710   4.042751  18.866010
     7  C    4.216992  -2.894325  -0.665567  -0.936461  -1.203834   0.409473
     8  C   -0.266959   5.815864  -0.797327   0.778104  -2.067425  -5.243748
     9  C   -1.271366  -2.428290  -0.129471  -0.290672  -0.019305   0.897754
    10  C   -1.086034   0.335333  -0.203611  -0.004592  -0.131371  -0.679367
    11  C   -5.151029  -2.309869  -0.438714   0.189833   2.118046   2.043295
    12  C   -0.029841  -3.231344  -0.217610  -0.759082   0.171165   1.799269
    13  H    0.057890   0.291891  -0.106057  -0.034858  -0.017675   0.013318
    14  H    0.037606  -0.026127   0.309356   0.037066  -0.003510  -0.012191
    15  H   -0.317979  -0.020931  -0.071297   0.113246   0.117222   0.311338
    16  H    0.041587   0.061510   0.029924   0.002598   0.001472   0.009326
    17  H    0.003317   0.019648   0.000397   0.000477  -0.000441  -0.003127
    18  H    0.018664   0.003185   0.000671  -0.000609  -0.004074  -0.001682
    19  Cl   1.091919   0.410280   0.074589  -0.043636  -0.810304  -1.225820
    20  Cl  -0.640260   0.112654   0.579865   0.155487  -1.191028   0.551111
    21  Cl  -0.058761  -0.025814  -0.005382  -0.001094   0.002059  -0.027581
    22  Cl  -0.196376  -0.066475  -0.319340  -1.211279   1.048545   0.132007
               7          8          9         10         11         12
     1  C    4.216992  -0.266959  -1.271366  -1.086034  -5.151029  -0.029841
     2  C   -2.894325   5.815864  -2.428290   0.335333  -2.309869  -3.231344
     3  C   -0.665567  -0.797327  -0.129471  -0.203611  -0.438714  -0.217610
     4  C   -0.936461   0.778104  -0.290672  -0.004592   0.189833  -0.759082
     5  C   -1.203834  -2.067425  -0.019305  -0.131371   2.118046   0.171165
     6  C    0.409473  -5.243748   0.897754  -0.679367   2.043295   1.799269
     7  C   13.162220  -4.193344   1.973966  -3.557320  -1.185597   0.879184
     8  C   -4.193344  21.154232  -4.501615   1.467874  -5.551550  -1.083791
     9  C    1.973966  -4.501615  18.466494  -1.924908  -1.371830  -3.226254
    10  C   -3.557320   1.467874  -1.924908  16.001863   0.301278  -3.926493
    11  C   -1.185597  -5.551550  -1.371830   0.301278  22.279949  -4.668928
    12  C    0.879184  -1.083791  -3.226254  -3.926493  -4.668928  21.609406
    13  H    0.072332  -0.018471   0.029938  -0.002386   0.008782   0.027109
    14  H    0.001408   0.011313  -0.000911   0.000334  -0.000192   0.000594
    15  H   -0.032930   0.013756  -0.006334   0.040609   0.186831   0.097722
    16  H    0.044773   0.352262  -0.119209  -0.026395  -0.036556  -0.037775
    17  H    0.001888   0.013653   0.203092   0.088021   0.012027   0.017845
    18  H    0.065437   0.000828   0.026811   0.017250   0.233908   0.012045
    19  Cl   0.318962   0.650163   0.001499  -0.327504  -0.741225  -0.847233
    20  Cl  -0.234776  -0.147681  -0.003160  -0.004074   0.032993   0.074865
    21  Cl  -0.229565   0.092408   0.223619  -1.040200   0.361569  -0.114924
    22  Cl  -0.082666  -0.000208  -0.006894  -0.000416  -0.009998  -0.071446
              13         14         15         16         17         18
     1  C    0.057890   0.037606  -0.317979   0.041587   0.003317   0.018664
     2  C    0.291891  -0.026127  -0.020931   0.061510   0.019648   0.003185
     3  C   -0.106057   0.309356  -0.071297   0.029924   0.000397   0.000671
     4  C   -0.034858   0.037066   0.113246   0.002598   0.000477  -0.000609
     5  C   -0.017675  -0.003510   0.117222   0.001472  -0.000441  -0.004074
     6  C    0.013318  -0.012191   0.311338   0.009326  -0.003127  -0.001682
     7  C    0.072332   0.001408  -0.032930   0.044773   0.001888   0.065437
     8  C   -0.018471   0.011313   0.013756   0.352262   0.013653   0.000828
     9  C    0.029938  -0.000911  -0.006334  -0.119209   0.203092   0.026811
    10  C   -0.002386   0.000334   0.040609  -0.026395   0.088021   0.017250
    11  C    0.008782  -0.000192   0.186831  -0.036556   0.012027   0.233908
    12  C    0.027109   0.000594   0.097722  -0.037775   0.017845   0.012045
    13  H    0.562475  -0.007108  -0.000171   0.001349   0.000028   0.000000
    14  H   -0.007108   0.510980   0.000101   0.000014   0.000000   0.000000
    15  H   -0.000171   0.000101   0.671588  -0.000107  -0.000002   0.000020
    16  H    0.001349   0.000014  -0.000107   0.548652  -0.007559   0.000069
    17  H    0.000028   0.000000  -0.000002  -0.007559   0.511952  -0.000286
    18  H    0.000000   0.000000   0.000020   0.000069  -0.000286   0.493489
    19  Cl  -0.000149  -0.000081  -0.224369  -0.000019   0.000858  -0.018518
    20  Cl   0.000559  -0.000644  -0.029881   0.000086  -0.000002   0.000005
    21  Cl   0.000046  -0.000000   0.000303  -0.000235  -0.013611  -0.012000
    22  Cl  -0.001266  -0.007809   0.000065   0.000014   0.000001   0.000000
              19         20         21         22
     1  C    1.091919  -0.640260  -0.058761  -0.196376
     2  C    0.410280   0.112654  -0.025814  -0.066475
     3  C    0.074589   0.579865  -0.005382  -0.319340
     4  C   -0.043636   0.155487  -0.001094  -1.211279
     5  C   -0.810304  -1.191028   0.002059   1.048545
     6  C   -1.225820   0.551111  -0.027581   0.132007
     7  C    0.318962  -0.234776  -0.229565  -0.082666
     8  C    0.650163  -0.147681   0.092408  -0.000208
     9  C    0.001499  -0.003160   0.223619  -0.006894
    10  C   -0.327504  -0.004074  -1.040200  -0.000416
    11  C   -0.741225   0.032993   0.361569  -0.009998
    12  C   -0.847233   0.074865  -0.114924  -0.071446
    13  H   -0.000149   0.000559   0.000046  -0.001266
    14  H   -0.000081  -0.000644  -0.000000  -0.007809
    15  H   -0.224369  -0.029881   0.000303   0.000065
    16  H   -0.000019   0.000086  -0.000235   0.000014
    17  H    0.000858  -0.000002  -0.013611   0.000001
    18  H   -0.018518   0.000005  -0.012000   0.000000
    19  Cl  18.095949  -0.074968  -0.011923   0.005376
    20  Cl  -0.074968  17.550971  -0.000017  -0.218116
    21  Cl  -0.011923  -0.000017  17.424185  -0.000003
    22  Cl   0.005376  -0.218116  -0.000003  17.490336
 Mulliken charges:
               1
     1  C   -0.460545
     2  C   -0.558301
     3  C   -0.514333
     4  C    0.795962
     5  C    0.319028
     6  C   -1.524161
     7  C    0.069751
     8  C   -0.478337
     9  C   -0.522954
    10  C    0.662108
    11  C   -0.303024
    12  C   -0.474481
    13  H    0.122424
    14  H    0.149801
    15  H    0.151198
    16  H    0.134219
    17  H    0.151824
    18  H    0.164785
    19  Cl   0.676153
    20  Cl   0.486012
    21  Cl   0.436924
    22  Cl   0.515947
 Sum of Mulliken charges =  -0.00000
 Mulliken charges with hydrogens summed into heavy atoms:
               1
     1  C   -0.460545
     2  C   -0.435877
     3  C   -0.364532
     4  C    0.795962
     5  C    0.319028
     6  C   -1.372963
     7  C    0.069751
     8  C   -0.344118
     9  C   -0.371130
    10  C    0.662108
    11  C   -0.138238
    12  C   -0.474481
    19  Cl   0.676153
    20  Cl   0.486012
    21  Cl   0.436924
    22  Cl   0.515947
 Electronic spatial extent (au):  <R**2>=           7203.7587
 Charge=             -0.0000 electrons
 Dipole moment (field-independent basis, Debye):
    X=              2.1468    Y=             -2.0791    Z=             -0.0000  Tot=              2.9886
 Quadrupole moment (field-independent basis, Debye-Ang):
   XX=           -132.8012   YY=           -110.0690   ZZ=           -124.2176
   XY=              0.2315   XZ=             -0.0000   YZ=             -0.0000
 Traceless Quadrupole moment (field-independent basis, Debye-Ang):
   XX=            -10.4386   YY=             12.2936   ZZ=             -1.8550
   XY=              0.2315   XZ=             -0.0000   YZ=             -0.0000
 Octapole moment (field-independent basis, Debye-Ang**2):
  XXX=              4.0649  YYY=             -8.9031  ZZZ=             -0.0001  XYY=              4.8749
  XXY=              0.8611  XXZ=             -0.0000  XZZ=             -5.2754  YZZ=              8.9766
  YYZ=             -0.0000  XYZ=             -0.0000
 Hexadecapole moment (field-independent basis, Debye-Ang**3):
 XXXX=          -8162.6161 YYYY=          -1387.3326 ZZZZ=           -145.1904 XXXY=             -8.0589
 XXXZ=             -0.0003 YYYX=            -24.3782 YYYZ=              0.0000 ZZZX=             -0.0001
 ZZZY=              0.0000 XXYY=          -1501.9122 XXZZ=          -1386.7430 YYZZ=           -288.9391
 XXYZ=             -0.0001 YYXZ=              0.0000 ZZXY=             -1.7873
 N-N= 1.415884256139D+03 E-N=-8.275972456142D+03  KE= 2.295657230761D+03
 Calling FoFJK, ICntrl=      2127 FMM=F ISym2X=0 I1Cent= 0 IOpClX= 0 NMat=1 NMatS=1 NMatT=0.
 ***** Axes restored to original set *****
 -------------------------------------------------------------------
 Center     Atomic                   Forces (Hartrees/Bohr)
 Number     Number              X              Y              Z
 -------------------------------------------------------------------
      1        6          -0.013156380   -0.024529760   -0.000272574
      2        6          -0.002025847    0.021466453    0.004699149
      3        6          -0.015379955   -0.005956643    0.003948398
      4        6          -0.000188695    0.002418446    0.000516161
      5        6           0.006321769   -0.007323390   -0.003458093
      6        6           0.046659203    0.031113105   -0.009528963
      7        6           0.019762589    0.040123603    0.001024817
      8        6          -0.027336520   -0.010509705    0.007032460
      9        6          -0.001959416    0.010628466    0.002641602
     10        6           0.006467022    0.012043636    0.000131362
     11        6           0.004568232    0.000888956   -0.001337932
     12        6           0.007000813   -0.018301515   -0.005743768
     13        1           0.006981952   -0.003112760   -0.002884904
     14        1           0.008280000    0.001710288   -0.002406667
     15        1           0.038682430    0.027655079   -0.007550601
     16        1           0.005526186   -0.002743491   -0.002336012
     17        1           0.003464812   -0.007881924   -0.002621768
     18        1          -0.008284008    0.000025955    0.002734027
     19       17          -0.087425984   -0.059960568    0.017542319
     20       17          -0.001593580   -0.006346512   -0.000666893
     21       17           0.002025000    0.004819356    0.000237910
     22       17           0.001610375   -0.006227074   -0.001700031
 -------------------------------------------------------------------
 Cartesian Forces:  Max     0.087425984 RMS     0.018619349

 GradGradGradGradGradGradGradGradGradGradGradGradGradGradGradGradGradGrad
 Berny optimization.
 FormGI is forming the generalized inverse of G from B-inverse, IUseBI=4.
 Internal  Forces:  Max     0.274550555 RMS     0.049946884
 Search for a local minimum.
 Step number   1 out of a maximum of  121
 All quantities printed in internal units (Hartrees-Bohrs-Radians)
 Mixed Optimization -- RFO/linear search
 Second derivative matrix not updated -- first step.
 ITU=  0
     Eigenvalues ---    0.00237   0.01506   0.01506   0.02070   0.02070
     Eigenvalues ---    0.02070   0.02070   0.02070   0.02070   0.02070
     Eigenvalues ---    0.02070   0.02070   0.02070   0.02070   0.02070
     Eigenvalues ---    0.02070   0.02070   0.02070   0.02070   0.16000
     Eigenvalues ---    0.16000   0.16000   0.16000   0.16000   0.16000
     Eigenvalues ---    0.22375   0.22375   0.23491   0.23491   0.24610
     Eigenvalues ---    0.24610   0.25000   0.25000   0.25000   0.25000
     Eigenvalues ---    0.25000   0.25000   0.28519   0.29539   0.29539
     Eigenvalues ---    0.29539   0.29539   0.37230   0.37230   0.37230
     Eigenvalues ---    0.37230   0.37230   0.37230   0.41393   0.41393
     Eigenvalues ---    0.41697   0.41697   0.45389   0.45389   0.45389
     Eigenvalues ---    0.45389   0.45389   0.45389   0.45389   0.45389
 RFO step:  Lambda=-4.11655266D-01 EMin= 2.36824243D-03
 Linear search not attempted -- first point.
 Maximum step size (   0.300) exceeded in Quadratic search.
    -- Step size scaled by   0.383
 Iteration  1 RMS(Cart)=  0.19900929 RMS(Int)=  0.01005006
 Iteration  2 RMS(Cart)=  0.03650312 RMS(Int)=  0.00031381
 Iteration  3 RMS(Cart)=  0.00058078 RMS(Int)=  0.00004740
 Iteration  4 RMS(Cart)=  0.00000020 RMS(Int)=  0.00004740
 Variable       Old X    -DE/DX   Delta X   Delta X   Delta X     New X
                                 (Linear)    (Quad)   (Total)
    R1        2.64826   0.01674   0.00000   0.00761   0.00765   2.65592
    R2        2.64826   0.01415   0.00000   0.00660   0.00664   2.65490
    R3        2.91018   0.06521   0.00000   0.03582   0.03582   2.94600
    R4        2.64826  -0.01474   0.00000  -0.00665  -0.00665   2.64161
    R5        2.02201   0.00661   0.00000   0.00323   0.00323   2.02523
    R6        2.64826  -0.02699   0.00000  -0.01228  -0.01232   2.63594
    R7        2.02201   0.00865   0.00000   0.00422   0.00422   2.02623
    R8        2.64826  -0.01788   0.00000  -0.00811  -0.00816   2.64010
    R9        3.32592  -0.00455   0.00000  -0.00246  -0.00246   3.32345
   R10        2.64826  -0.00448   0.00000  -0.00184  -0.00185   2.64641
   R11        3.32592  -0.00484   0.00000  -0.00262  -0.00262   3.32330
   R12        2.02201  -0.03970   0.00000  -0.01938  -0.01938   2.00262
   R13        2.64826   0.01950   0.00000   0.00930   0.00941   2.65767
   R14        2.64826   0.11868   0.00000   0.05373   0.05381   2.70207
   R15        2.64826  -0.02326   0.00000  -0.01085  -0.01082   2.63744
   R16        2.02201   0.00592   0.00000   0.00289   0.00289   2.02490
   R17        2.64826  -0.04128   0.00000  -0.01950  -0.01958   2.62869
   R18        2.02201   0.00898   0.00000   0.00438   0.00438   2.02639
   R19        2.64826  -0.03167   0.00000  -0.01468  -0.01479   2.63347
   R20        3.32592  -0.00518   0.00000  -0.00280  -0.00280   3.32311
   R21        2.64826   0.00238   0.00000   0.00162   0.00159   2.64985
   R22        2.02201   0.00872   0.00000   0.00426   0.00426   2.02626
   R23        3.32592  -0.00616   0.00000  -0.00334  -0.00334   3.32258
    A1        2.09440  -0.06047   0.00000  -0.03452  -0.03443   2.05996
    A2        2.09440  -0.12714   0.00000  -0.07378  -0.07382   2.02057
    A3        2.09440   0.18761   0.00000   0.10830   0.10825   2.20265
    A4        2.09440   0.03796   0.00000   0.02281   0.02286   2.11726
    A5        2.09440  -0.01412   0.00000  -0.00816  -0.00818   2.08622
    A6        2.09440  -0.02383   0.00000  -0.01466  -0.01468   2.07971
    A7        2.09440   0.00235   0.00000   0.00047   0.00043   2.09482
    A8        2.09440   0.00039   0.00000   0.00082   0.00083   2.09523
    A9        2.09440  -0.00274   0.00000  -0.00128  -0.00126   2.09313
   A10        2.09440  -0.01425   0.00000  -0.00925  -0.00934   2.08505
   A11        2.09440  -0.00094   0.00000  -0.00004   0.00000   2.09440
   A12        2.09440   0.01519   0.00000   0.00929   0.00934   2.10373
   A13        2.09440   0.01356   0.00000   0.00747   0.00742   2.10182
   A14        2.09440   0.00064   0.00000   0.00055   0.00058   2.09497
   A15        2.09440  -0.01419   0.00000  -0.00803  -0.00800   2.08639
   A16        2.09440   0.02085   0.00000   0.01302   0.01306   2.10745
   A17        2.09440   0.01711   0.00000   0.01193   0.01191   2.10630
   A18        2.09440  -0.03796   0.00000  -0.02495  -0.02497   2.06943
   A19        2.09440  -0.19633   0.00000  -0.11466  -0.11476   1.97964
   A20        2.09440   0.27455   0.00000   0.15773   0.15763   2.25203
   A21        2.09440  -0.07822   0.00000  -0.04307  -0.04288   2.05152
   A22        2.09440   0.05922   0.00000   0.03563   0.03577   2.13017
   A23        2.09440  -0.02666   0.00000  -0.01584  -0.01591   2.07848
   A24        2.09440  -0.03256   0.00000  -0.01979  -0.01986   2.07454
   A25        2.09440  -0.00184   0.00000  -0.00406  -0.00411   2.09028
   A26        2.09440   0.00157   0.00000   0.00246   0.00249   2.09688
   A27        2.09440   0.00028   0.00000   0.00160   0.00162   2.09602
   A28        2.09440  -0.00164   0.00000  -0.00391  -0.00409   2.09030
   A29        2.09440   0.00204   0.00000   0.00266   0.00275   2.09715
   A30        2.09440  -0.00040   0.00000   0.00125   0.00134   2.09574
   A31        2.09440   0.03423   0.00000   0.02017   0.02004   2.11443
   A32        2.09440  -0.01690   0.00000  -0.00994  -0.00987   2.08452
   A33        2.09440  -0.01733   0.00000  -0.01023  -0.01016   2.08423
   A34        2.09440  -0.01175   0.00000  -0.00477  -0.00472   2.08967
   A35        2.09440   0.18427   0.00000   0.10558   0.10556   2.19995
   A36        2.09440  -0.17252   0.00000  -0.10081  -0.10084   1.99356
    D1        0.00000   0.00000   0.00000   0.00000   0.00000   0.00000
    D2        3.14159   0.00000   0.00000   0.00000   0.00000   3.14159
    D3       -3.14159   0.00000   0.00000  -0.00000  -0.00000  -3.14159
    D4       -0.00000  -0.00000   0.00000  -0.00000  -0.00000  -0.00000
    D5       -0.00000  -0.00000   0.00000  -0.00000  -0.00000  -0.00000
    D6        3.14159  -0.00000   0.00000  -0.00000  -0.00000   3.14159
    D7        3.14159   0.00000   0.00000   0.00000   0.00000   3.14159
    D8        0.00000  -0.00000   0.00000  -0.00000  -0.00000   0.00000
    D9       -0.00000  -0.00000   0.00000  -0.00000  -0.00000  -0.00000
   D10        3.14159  -0.00000   0.00000  -0.00000  -0.00000   3.14159
   D11        3.14159  -0.00000   0.00000  -0.00000  -0.00000   3.14159
   D12       -0.00000  -0.00000   0.00000  -0.00000  -0.00000  -0.00000
   D13        0.00000  -0.00000   0.00000  -0.00000  -0.00000   0.00000
   D14        3.14159  -0.00000   0.00000  -0.00000  -0.00000   3.14159
   D15       -3.14159  -0.00000   0.00000  -0.00000  -0.00000  -3.14159
   D16        0.00000  -0.00000   0.00000  -0.00000  -0.00000   0.00000
   D17       -0.00000   0.00000   0.00000   0.00000   0.00000  -0.00000
   D18        3.14159   0.00000   0.00000   0.00000   0.00000   3.14159
   D19        3.14159  -0.00000   0.00000  -0.00000  -0.00000   3.14159
   D20        0.00000  -0.00000   0.00000  -0.00000  -0.00000   0.00000
   D21        0.00000   0.00000   0.00000   0.00000   0.00000   0.00000
   D22       -3.14159   0.00000   0.00000   0.00000   0.00000  -3.14159
   D23       -3.14159  -0.00000   0.00000  -0.00000  -0.00000  -3.14159
   D24        0.00000   0.00000   0.00000   0.00000   0.00000   0.00000
   D25       -0.00000   0.00000   0.00000   0.00000   0.00000  -0.00000
   D26        3.14159   0.00000   0.00000   0.00000   0.00000   3.14159
   D27        3.14159   0.00000   0.00000  -0.00000  -0.00000   3.14159
   D28       -0.00000   0.00000   0.00000   0.00000   0.00000  -0.00000
   D29        3.14159   0.00000   0.00000   0.00000   0.00000   3.14159
   D30        0.00000   0.00000   0.00000   0.00000   0.00000   0.00000
   D31        0.00000   0.00000   0.00000   0.00000   0.00000   0.00000
   D32       -3.14159  -0.00000   0.00000  -0.00000  -0.00000  -3.14159
   D33       -3.14159   0.00000   0.00000   0.00000   0.00000  -3.14159
   D34        0.00000  -0.00000   0.00000  -0.00000  -0.00000   0.00000
   D35       -0.00000  -0.00000   0.00000  -0.00000  -0.00000  -0.00000
   D36        3.14159  -0.00000   0.00000  -0.00000  -0.00000   3.14159
   D37       -0.00000   0.00000   0.00000  -0.00000  -0.00000  -0.00000
   D38        3.14159  -0.00000   0.00000  -0.00000  -0.00000   3.14159
   D39        3.14159   0.00000   0.00000   0.00000   0.00000   3.14159
   D40       -0.00000   0.00000   0.00000   0.00000   0.00000  -0.00000
   D41       -0.00000  -0.00000   0.00000  -0.00000  -0.00000  -0.00000
   D42       -3.14159  -0.00000   0.00000  -0.00000  -0.00000  -3.14159
   D43        3.14159   0.00000   0.00000   0.00000   0.00000   3.14159
   D44        0.00000  -0.00000   0.00000  -0.00000  -0.00000   0.00000
   D45        0.00000   0.00000   0.00000   0.00000   0.00000   0.00000
   D46       -3.14159   0.00000   0.00000   0.00000   0.00000  -3.14159
   D47        3.14159   0.00000   0.00000   0.00000   0.00000   3.14159
   D48        0.00000   0.00000   0.00000   0.00000   0.00000   0.00000
   D49        0.00000   0.00000   0.00000   0.00000   0.00000   0.00000
   D50       -3.14159   0.00000   0.00000   0.00000   0.00000  -3.14159
   D51        3.14159   0.00000   0.00000   0.00000   0.00000   3.14159
   D52       -0.00000   0.00000   0.00000   0.00000   0.00000  -0.00000
         Item               Value     Threshold  Converged?
 Maximum Force            0.274551     0.000450     NO 
 RMS     Force            0.049947     0.000300     NO 
 Maximum Displacement     0.988861     0.001800     NO 
 RMS     Displacement     0.230851     0.001200     NO 
 Predicted change in Energy=-1.459295D-01
 GradGradGradGradGradGradGradGradGradGradGradGradGradGradGradGradGradGrad

                          Input orientation:                          
 ---------------------------------------------------------------------
 Center     Atomic      Atomic             Coordinates (Angstroms)
 Number     Number       Type             X           Y           Z
 ---------------------------------------------------------------------
      1          6           0       -0.998564    1.976911    0.784476
      2          6           0        0.326904    1.874287    0.328521
      3          6           0        1.161574    2.993754    0.263781
      4          6           0        0.683822    4.244190    0.656023
      5          6           0       -0.631186    4.365326    1.112007
      6          6           0       -1.465830    3.242633    1.176132
      7          6           0       -1.813602    0.648119    0.803436
      8          6           0       -1.080190   -0.464107    0.352922
      9          6           0       -1.635258   -1.743368    0.295536
     10          6           0       -2.953507   -1.942589    0.692428
     11          6           0       -3.710526   -0.863428    1.144510
     12          6           0       -3.167222    0.427723    1.208005
     13          1           0        0.708299    0.920255    0.023694
     14          1           0        2.169587    2.892296   -0.087367
     15          1           0       -2.458043    3.368126    1.526589
     16          1           0       -0.063443   -0.327100    0.043681
     17          1           0       -1.047970   -2.570015   -0.053202
     18          1           0       -4.726133   -1.023025    1.449138
     19         17           0       -4.280949    1.650468    1.804576
     20         17           0       -1.248971    5.934658    1.610271
     21         17           0       -3.663296   -3.550055    0.624379
     22         17           0        1.734487    5.652180    0.574311
 ---------------------------------------------------------------------
                    Distance matrix (angstroms):
                    1          2          3          4          5
     1  C    0.000000
     2  C    1.405450   0.000000
     3  C    2.443622   1.397882   0.000000
     4  C    2.826212   2.418903   1.394880   0.000000
     5  C    2.438600   2.781558   2.411366   1.397083   0.000000
     6  C    1.404914   2.409297   2.792414   2.427887   1.400422
     7  C    1.558954   2.512130   3.826867   4.380706   3.912922
     8  C    2.480216   2.729211   4.121924   5.037030   4.909302
     9  C    3.805906   4.115652   5.501237   6.431091   6.244272
    10  C    4.380954   5.045995   6.440894   7.176888   6.734910
    11  C    3.943588   4.945883   6.276217   6.755492   6.068217
    12  C    2.698600   3.882648   5.120015   5.449830   4.684593
    13  H    2.146786   1.071708   2.136001   3.383635   3.853201
    14  H    3.411044   2.145877   1.072236   2.141902   3.384176
    15  H    2.148555   3.379771   3.851813   3.375898   2.122190
    16  H    2.594551   2.253798   3.546432   4.672265   4.845876
    17  H    4.623708   4.667741   5.994839   7.066505   7.044883
    18  H    4.830752   5.931558   7.225281   7.592114   6.776177
    19  Cl   3.452712   4.843670   5.813735   5.717999   4.601182
    20  Cl   4.050728   4.540140   4.033940   2.739335   1.758615
    21  Cl   6.137897   6.740379   8.138234   8.924612   8.490273
    22  Cl   4.584904   4.039082   2.737131   1.758696   2.746183
                    6          7          8          9         10
     6  C    0.000000
     7  C    2.644116   0.000000
     8  C    3.816584   1.406380   0.000000
     9  C    5.066000   2.451322   1.395672   0.000000
    10  C    5.416058   2.832574   2.410496   1.391040   0.000000
    11  C    4.679679   2.449372   2.775741   2.408691   1.393573
    12  C    3.289296   1.429873   2.425331   2.809475   2.435133
    13  H    3.383547   2.653684   2.285507   3.558236   4.695945
    14  H    3.864638   4.657860   4.692584   6.009396   7.087333
    15  H    1.059743   2.887333   4.238158   5.321639   5.398611
    16  H    3.999015   2.142740   1.071529   2.130692   3.373892
    17  H    5.955900   3.417075   2.144952   1.072319   2.140256
    18  H    5.375867   3.419428   3.847984   3.376863   2.135512
    19  Cl   3.294666   2.845133   4.101656   4.560154   3.988613
    20  Cl   2.735416   5.377480   6.523313   7.799348   8.111652
    21  Cl   7.160579   4.591088   4.033510   2.735909   1.758516
    22  Cl   4.050943   6.138572   6.736497   8.131853   8.925904
                   11         12         13         14         15
    11  C    0.000000
    12  C    1.402241   0.000000
    13  H    4.895280   4.082259   0.000000
    14  H    7.085105   6.019439   2.456958   0.000000
    15  H    4.429531   3.041447   4.275100   4.924046   0.000000
    16  H    3.847166   3.399831   1.466929   3.920218   4.646269
    17  H    3.381739   3.881791   3.907989   6.339612   6.304408
    18  H    1.072253   2.143133   5.944853   8.077224   4.942918
    19  Cl   2.660966   1.758235   5.347648   6.836007   2.520042
    20  Cl   7.245009   5.845326   5.611806   4.881032   2.838300
    21  Cl   2.736920   4.050855   6.281349   8.719690   7.080102
    22  Cl   8.510373   7.191890   4.873126   2.871253   4.868372
                   16         17         18         19         20
    16  H    0.000000
    17  H    2.451397   0.000000
    18  H    4.919380   4.263693   0.000000
    19  Cl   4.979847   5.631692   2.733512   0.000000
    20  Cl   6.562719   8.668160   7.779844   5.252135   0.000000
    21  Cl   4.866579   2.873939   2.862818   5.368407   9.836703
    22  Cl   6.266252   8.702892   9.330772   7.328896   3.170809
                   21         22
    21  Cl   0.000000
    22  Cl  10.668632   0.000000
 Stoichiometry    C12H6Cl4
 Framework group  C1[X(C12H6Cl4)]
 Deg. of freedom    60
 Full point group                 C1      NOp   1
 Largest Abelian subgroup         C1      NOp   1
 Largest concise Abelian subgroup C1      NOp   1
                         Standard orientation:                         
 ---------------------------------------------------------------------
 Center     Atomic      Atomic             Coordinates (Angstroms)
 Number     Number       Type             X           Y           Z
 ---------------------------------------------------------------------
      1          6           0       -0.437840   -0.401610    0.000002
      2          6           0       -0.944193   -1.712678    0.000000
      3          6           0       -2.320014   -1.960042   -0.000001
      4          6           0       -3.220668   -0.894908   -0.000002
      5          6           0       -2.735558    0.415249    0.000002
      6          6           0       -1.356870    0.661013    0.000003
      7          6           0        1.115976   -0.275143    0.000003
      8          6           0        1.777923   -1.516001    0.000004
      9          6           0        3.170244   -1.612663    0.000003
     10          6           0        3.942778   -0.455863    0.000002
     11          6           0        3.320995    0.791306   -0.000000
     12          6           0        1.923368    0.904965    0.000000
     13          1           0       -0.264649   -2.541399   -0.000001
     14          1           0       -2.684194   -2.968537   -0.000003
     15          1           0       -1.021272    1.666214    0.000005
     16          1           0        1.196940   -2.416353    0.000003
     17          1           0        3.643195   -2.575048    0.000005
     18          1           0        3.921628    1.679544   -0.000004
     19         17           0        1.334338    2.561598   -0.000005
     20         17           0       -3.857698    1.769328    0.000005
     21         17           0        5.697866   -0.565608   -0.000001
     22         17           0       -4.951477   -1.206857   -0.000005
 ---------------------------------------------------------------------
 Rotational constants (GHZ):           0.8230677           0.1458708           0.1239104
 Standard basis: 6-311+G(d,p) (5D, 7F)
 There are   436 symmetry adapted cartesian basis functions of A   symmetry.
 There are   420 symmetry adapted basis functions of A   symmetry.
   420 basis functions,   692 primitive gaussians,   436 cartesian basis functions
    73 alpha electrons       73 beta electrons
       nuclear repulsion energy      1389.9673844305 Hartrees.
 NAtoms=   22 NActive=   22 NUniq=   22 SFac= 1.00D+00 NAtFMM=   60 NAOKFM=F Big=F
 Integral buffers will be    131072 words long.
 Raffenetti 2 integral format.
 Two-electron integral symmetry is turned on.
 One-electron integrals computed using PRISM.
 NBasis=   420 RedAO= T EigKep=  1.23D-06  NBF=   420
 NBsUse=   415 1.00D-06 EigRej=  7.13D-07 NBFU=   415
 Initial guess from the checkpoint file:  "/scratch/gour/Gau-23892.chk"
 B after Tr=     0.000000   -0.000000    0.000000
         Rot=    0.999950    0.000000    0.000000    0.009972 Ang=   1.14 deg.
 ExpMin= 4.38D-02 ExpMax= 1.06D+05 ExpMxC= 3.62D+03 IAcc=3 IRadAn=         5 AccDes= 0.00D+00
 Harris functional with IExCor=  402 and IRadAn=       5 diagonalized for initial guess.
 HarFok:  IExCor=  402 AccDes= 0.00D+00 IRadAn=         5 IDoV= 1 UseB2=F ITyADJ=14
 ICtDFT=  3500011 ScaDFX=  1.000000  1.000000  1.000000  1.000000
 FoFCou: FMM=F IPFlag=           0 FMFlag=      100000 FMFlg1=           0
         NFxFlg=           0 DoJE=T BraDBF=F KetDBF=T FulRan=T
         wScrn=  0.000000 ICntrl=       500 IOpCl=  0 I1Cent=   200000004 NGrid=           0
         NMat0=    1 NMatS0=      1 NMatT0=    0 NMatD0=    1 NMtDS0=    0 NMtDT0=    0
 Petite list used in FoFCou.
 Requested convergence on RMS density matrix=1.00D-08 within  32 cycles.
 Requested convergence on MAX density matrix=1.00D-06.
 Requested convergence on             energy=1.00D-06.
 No special actions if energy rises.
 EnCoef did     4 forward-backward iterations
 SCF Done:  E(RB3LYP) =  -2301.88099737     A.U. after   17 cycles
            NFock= 17  Conv=0.44D-08     -V/T= 2.0028
 QCSCF skips out because SCF is already converged.
 Calling FoFJK, ICntrl=      2127 FMM=F ISym2X=0 I1Cent= 0 IOpClX= 0 NMat=1 NMatS=1 NMatT=0.
 ***** Axes restored to original set *****
 -------------------------------------------------------------------
 Center     Atomic                   Forces (Hartrees/Bohr)
 Number     Number              X              Y              Z
 -------------------------------------------------------------------
      1        6          -0.012913802   -0.021109465    0.000289903
      2        6           0.003677734    0.023720823    0.003243474
      3        6          -0.012955120   -0.005083417    0.003313521
      4        6           0.001558039    0.003916840    0.000222098
      5        6          -0.001491653   -0.001482387    0.000213062
      6        6           0.014218372   -0.003046557   -0.005256430
      7        6           0.008315077    0.029250863    0.002754274
      8        6          -0.026713869   -0.016403745    0.005720347
      9        6           0.000569597    0.006605472    0.001052841
     10        6           0.001731450    0.007656075    0.000867503
     11        6           0.005405643    0.000150420   -0.001752536
     12        6           0.016071313   -0.012082809   -0.007564147
     13        1           0.010057378    0.008324059   -0.001750158
     14        1           0.006812784    0.000326729   -0.002183131
     15        1          -0.012368894    0.002538722    0.004551749
     16        1          -0.003360936   -0.010837092   -0.000928179
     17        1           0.003987954   -0.005685151   -0.002381546
     18        1          -0.006482194   -0.000105101    0.002115788
     19       17           0.005205492    0.002235265   -0.001295210
     20       17          -0.001656414   -0.006369546   -0.000650508
     21       17           0.000983012    0.003839087    0.000397099
     22       17          -0.000650965   -0.006359086   -0.000979815
 -------------------------------------------------------------------
 Cartesian Forces:  Max     0.029250863 RMS     0.008690258

 GradGradGradGradGradGradGradGradGradGradGradGradGradGradGradGradGradGrad
 Berny optimization.
 Using GEDIIS/GDIIS optimizer.
 FormGI is forming the generalized inverse of G from B-inverse, IUseBI=4.
 Internal  Forces:  Max     0.063069171 RMS     0.011521505
 Search for a local minimum.
 Step number   2 out of a maximum of  121
 All quantities printed in internal units (Hartrees-Bohrs-Radians)
 Mixed Optimization -- RFO/linear search
 Update second derivatives using D2CorX and points    1    2
 DE= -3.89D-02 DEPred=-1.46D-01 R= 2.66D-01
 Trust test= 2.66D-01 RLast= 3.00D-01 DXMaxT set to 3.00D-01
 ITU=  0  0
 Use linear search instead of GDIIS.
     Eigenvalues ---    0.00237   0.01478   0.01484   0.02070   0.02070
     Eigenvalues ---    0.02070   0.02070   0.02070   0.02070   0.02070
     Eigenvalues ---    0.02070   0.02070   0.02070   0.02070   0.02070
     Eigenvalues ---    0.02070   0.02070   0.02070   0.02070   0.15966
     Eigenvalues ---    0.16000   0.16000   0.16000   0.16000   0.16035
     Eigenvalues ---    0.22365   0.22402   0.23408   0.23502   0.24401
     Eigenvalues ---    0.24608   0.24886   0.25000   0.25000   0.25000
     Eigenvalues ---    0.25000   0.28454   0.29529   0.29539   0.29539
     Eigenvalues ---    0.29539   0.37086   0.37201   0.37230   0.37230
     Eigenvalues ---    0.37230   0.37230   0.40508   0.41296   0.41325
     Eigenvalues ---    0.41749   0.45050   0.45324   0.45389   0.45389
     Eigenvalues ---    0.45389   0.45389   0.45389   0.45389   2.07348
 RFO step:  Lambda=-1.46570782D-02 EMin= 2.36824243D-03
 Quartic linear search produced a step of -0.32119.
 Iteration  1 RMS(Cart)=  0.15412111 RMS(Int)=  0.00497282
 Iteration  2 RMS(Cart)=  0.00879882 RMS(Int)=  0.00006467
 Iteration  3 RMS(Cart)=  0.00002824 RMS(Int)=  0.00006415
 Iteration  4 RMS(Cart)=  0.00000000 RMS(Int)=  0.00006415
 Variable       Old X    -DE/DX   Delta X   Delta X   Delta X     New X
                                 (Linear)    (Quad)   (Total)
    R1        2.65592   0.00984  -0.00246   0.02133   0.01892   2.67484
    R2        2.65490  -0.00337  -0.00213   0.00105  -0.00101   2.65389
    R3        2.94600  -0.00694  -0.01150   0.01296   0.00145   2.94745
    R4        2.64161  -0.00868   0.00214  -0.01799  -0.01588   2.62573
    R5        2.02523  -0.00333  -0.00104  -0.00314  -0.00417   2.02106
    R6        2.63594  -0.00679   0.00396  -0.02064  -0.01676   2.61918
    R7        2.02623   0.00709  -0.00136   0.01596   0.01460   2.04083
    R8        2.64010  -0.00428   0.00262  -0.01372  -0.01115   2.62896
    R9        3.32345  -0.00543   0.00079  -0.01387  -0.01308   3.31038
   R10        2.64641  -0.00837   0.00059  -0.01399  -0.01337   2.63305
   R11        3.32330  -0.00529   0.00084  -0.01367  -0.01283   3.31047
   R12        2.00262   0.01339   0.00623   0.00722   0.01345   2.01607
   R13        2.65767   0.00890  -0.00302   0.02107   0.01814   2.67582
   R14        2.70207  -0.01771  -0.01728   0.02025   0.00310   2.70517
   R15        2.63744  -0.00619   0.00348  -0.01772  -0.01428   2.62316
   R16        2.02490  -0.00431  -0.00093  -0.00513  -0.00605   2.01884
   R17        2.62869  -0.00629   0.00629  -0.02554  -0.01938   2.60930
   R18        2.02639   0.00734  -0.00141   0.01653   0.01513   2.04152
   R19        2.63347  -0.01050   0.00475  -0.02804  -0.02339   2.61008
   R20        3.32311  -0.00392   0.00090  -0.01083  -0.00993   3.31318
   R21        2.64985  -0.00781  -0.00051  -0.01050  -0.01097   2.63888
   R22        2.02626   0.00676  -0.00137   0.01540   0.01404   2.04030
   R23        3.32258  -0.00218   0.00107  -0.00746  -0.00639   3.31619
    A1        2.05996  -0.01312   0.01106  -0.05968  -0.04848   2.01148
    A2        2.02057   0.05690   0.02371   0.08802   0.11166   2.13224
    A3        2.20265  -0.04379  -0.03477  -0.02835  -0.06318   2.13946
    A4        2.11726   0.00337  -0.00734   0.02778   0.02046   2.13772
    A5        2.08622   0.01122   0.00263   0.03841   0.04103   2.12724
    A6        2.07971  -0.01459   0.00472  -0.06619  -0.06149   2.01823
    A7        2.09482   0.00394  -0.00014   0.01099   0.01075   2.10557
    A8        2.09523  -0.00094  -0.00027  -0.00078  -0.00099   2.09424
    A9        2.09313  -0.00300   0.00041  -0.01021  -0.00975   2.08338
   A10        2.08505  -0.00380   0.00300  -0.01912  -0.01625   2.06880
   A11        2.09440  -0.00392  -0.00000  -0.00899  -0.00892   2.08548
   A12        2.10373   0.00773  -0.00300   0.02811   0.02518   2.12891
   A13        2.10182   0.00070  -0.00238   0.00536   0.00295   2.10477
   A14        2.09497   0.00626  -0.00019   0.01758   0.01740   2.11237
   A15        2.08639  -0.00695   0.00257  -0.02293  -0.02035   2.06604
   A16        2.10745   0.00891  -0.00419   0.03467   0.03058   2.13803
   A17        2.10630  -0.00348  -0.00383  -0.00100  -0.00488   2.10142
   A18        2.06943  -0.00543   0.00802  -0.03366  -0.02570   2.04373
   A19        1.97964   0.06307   0.03686   0.07241   0.10914   2.08878
   A20        2.25203  -0.04536  -0.05063   0.00646  -0.04430   2.20773
   A21        2.05152  -0.01771   0.01377  -0.07887  -0.06484   1.98667
   A22        2.13017   0.00724  -0.01149   0.04943   0.03800   2.16817
   A23        2.07848   0.00705   0.00511   0.01804   0.02312   2.10161
   A24        2.07454  -0.01429   0.00638  -0.06747  -0.06113   2.01341
   A25        2.09028  -0.00193   0.00132  -0.00669  -0.00554   2.08474
   A26        2.09688   0.00100  -0.00080   0.00380   0.00309   2.09997
   A27        2.09602   0.00092  -0.00052   0.00289   0.00245   2.09847
   A28        2.09030  -0.00019   0.00132  -0.00321  -0.00214   2.08816
   A29        2.09715   0.00125  -0.00088   0.00512   0.00435   2.10150
   A30        2.09574  -0.00106  -0.00043  -0.00190  -0.00221   2.09352
   A31        2.11443  -0.00442  -0.00644   0.00096  -0.00555   2.10889
   A32        2.08452   0.00315   0.00317   0.00326   0.00646   2.09099
   A33        2.08423   0.00127   0.00326  -0.00421  -0.00092   2.08331
   A34        2.08967   0.01702   0.00152   0.03838   0.04007   2.12975
   A35        2.19995  -0.01746  -0.03390   0.03814   0.00415   2.20410
   A36        1.99356   0.00044   0.03239  -0.07652  -0.04422   1.94934
    D1        0.00000  -0.00000  -0.00000  -0.00000  -0.00000   0.00000
    D2        3.14159  -0.00000  -0.00000  -0.00000  -0.00000   3.14159
    D3       -3.14159  -0.00000   0.00000  -0.00000  -0.00000  -3.14159
    D4       -0.00000  -0.00000   0.00000   0.00000   0.00000  -0.00000
    D5       -0.00000   0.00000   0.00000   0.00000   0.00000  -0.00000
    D6        3.14159   0.00000   0.00000   0.00000   0.00000   3.14159
    D7        3.14159  -0.00000  -0.00000   0.00000   0.00000   3.14159
    D8       -0.00000  -0.00000   0.00000  -0.00000  -0.00000  -0.00000
    D9       -0.00000  -0.00000   0.00000  -0.00000  -0.00000  -0.00000
   D10        3.14159  -0.00000   0.00000  -0.00000  -0.00000   3.14159
   D11        3.14159  -0.00000   0.00000  -0.00000  -0.00000   3.14159
   D12       -0.00000  -0.00000   0.00000   0.00000   0.00000  -0.00000
   D13        0.00000  -0.00000   0.00000  -0.00000  -0.00000   0.00000
   D14        3.14159   0.00000   0.00000   0.00000   0.00000   3.14159
   D15       -3.14159  -0.00000   0.00000  -0.00000  -0.00000  -3.14159
   D16        0.00000  -0.00000   0.00000  -0.00000  -0.00000   0.00000
   D17       -0.00000   0.00000  -0.00000   0.00000   0.00000  -0.00000
   D18        3.14159  -0.00000  -0.00000  -0.00000  -0.00000   3.14159
   D19        3.14159   0.00000   0.00000   0.00000   0.00000   3.14159
   D20        0.00000  -0.00000   0.00000  -0.00000  -0.00000   0.00000
   D21        0.00000  -0.00000  -0.00000  -0.00000  -0.00000   0.00000
   D22       -3.14159  -0.00000  -0.00000  -0.00000  -0.00000  -3.14159
   D23       -3.14159   0.00000   0.00000   0.00000   0.00000  -3.14159
   D24        0.00000  -0.00000  -0.00000   0.00000   0.00000   0.00000
   D25       -0.00000   0.00000  -0.00000   0.00000   0.00000  -0.00000
   D26        3.14159   0.00000  -0.00000   0.00000   0.00000   3.14159
   D27        3.14159   0.00000   0.00000   0.00000   0.00000   3.14159
   D28       -0.00000   0.00000  -0.00000   0.00000   0.00000  -0.00000
   D29        3.14159  -0.00000  -0.00000   0.00000   0.00000  -3.14159
   D30        0.00000  -0.00000  -0.00000  -0.00000  -0.00000   0.00000
   D31        0.00000  -0.00000  -0.00000  -0.00000  -0.00000   0.00000
   D32       -3.14159  -0.00000   0.00000  -0.00000  -0.00000  -3.14159
   D33       -3.14159  -0.00000  -0.00000  -0.00000  -0.00000   3.14159
   D34        0.00000  -0.00000   0.00000  -0.00000  -0.00000  -0.00000
   D35       -0.00000   0.00000   0.00000   0.00000   0.00000  -0.00000
   D36        3.14159   0.00000   0.00000   0.00000   0.00000   3.14159
   D37       -0.00000  -0.00000   0.00000   0.00000   0.00000  -0.00000
   D38        3.14159  -0.00000   0.00000  -0.00000  -0.00000   3.14159
   D39        3.14159   0.00000  -0.00000   0.00000   0.00000   3.14159
   D40       -0.00000   0.00000  -0.00000   0.00000   0.00000  -0.00000
   D41       -0.00000   0.00000   0.00000   0.00000   0.00000   0.00000
   D42       -3.14159  -0.00000   0.00000  -0.00000  -0.00000  -3.14159
   D43        3.14159   0.00000  -0.00000   0.00000   0.00000  -3.14159
   D44        0.00000  -0.00000   0.00000  -0.00000  -0.00000   0.00000
   D45        0.00000   0.00000  -0.00000  -0.00000  -0.00000  -0.00000
   D46       -3.14159  -0.00000  -0.00000  -0.00000  -0.00000  -3.14159
   D47        3.14159   0.00000  -0.00000   0.00000   0.00000   3.14159
   D48        0.00000  -0.00000  -0.00000  -0.00000  -0.00000   0.00000
   D49        0.00000  -0.00000  -0.00000  -0.00000  -0.00000   0.00000
   D50       -3.14159  -0.00000  -0.00000  -0.00000  -0.00000  -3.14159
   D51        3.14159   0.00000  -0.00000   0.00000   0.00000   3.14159
   D52       -0.00000   0.00000  -0.00000   0.00000   0.00000  -0.00000
         Item               Value     Threshold  Converged?
 Maximum Force            0.063069     0.000450     NO 
 RMS     Force            0.011522     0.000300     NO 
 Maximum Displacement     0.562281     0.001800     NO 
 RMS     Displacement     0.156611     0.001200     NO 
 Predicted change in Energy=-9.879137D-03
 GradGradGradGradGradGradGradGradGradGradGradGradGradGradGradGradGradGrad

                          Input orientation:                          
 ---------------------------------------------------------------------
 Center     Atomic      Atomic             Coordinates (Angstroms)
 Number     Number       Type             X           Y           Z
 ---------------------------------------------------------------------
      1          6           0       -0.879936    1.916024    0.733960
      2          6           0        0.466238    1.960309    0.298774
      3          6           0        1.204905    3.136964    0.276403
      4          6           0        0.639561    4.333821    0.687438
      5          6           0       -0.681977    4.329871    1.122081
      6          6           0       -1.418246    3.147116    1.142517
      7          6           0       -1.702354    0.590929    0.756046
      8          6           0       -1.097832   -0.616597    0.330095
      9          6           0       -1.740286   -1.846942    0.310686
     10          6           0       -3.053898   -1.933439    0.727221
     11          6           0       -3.710514   -0.796847    1.157011
     12          6           0       -3.062585    0.440029    1.175844
     13          1           0        0.981003    1.084394   -0.035321
     14          1           0        2.229870    3.124534   -0.063611
[...]

 **********************************************************************

 Orbital symmetries:
       Occupied  (A) (A) (A) (A) (A) (A) (A) (A) (A) (A) (A) (A)
                 (A) (A) (A) (A) (A) (A) (A) (A) (A) (A) (A) (A)
                 (A) (A) (A) (A) (A) (A) (A) (A) (A) (A) (A) (A)
                 (A) (A) (A) (A) (A) (A) (A) (A) (A) (A) (A) (A)
                 (A) (A) (A) (A) (A) (A) (A) (A) (A) (A) (A) (A)
                 (A) (A) (A) (A) (A) (A) (A) (A) (A) (A) (A) (A)
                 (A)
       Virtual   (A) (A) (A) (A) (A) (A) (A) (A) (A) (A) (A) (A)
                 (A) (A) (A) (A) (A) (A) (A) (A) (A) (A) (A) (A)
                 (A) (A) (A) (A) (A) (A) (A) (A) (A) (A) (A) (A)
                 (A) (A) (A) (A) (A) (A) (A) (A) (A) (A) (A) (A)
                 (A) (A) (A) (A) (A) (A) (A) (A) (A) (A) (A) (A)
                 (A) (A) (A) (A) (A) (A) (A) (A) (A) (A) (A) (A)
                 (A) (A) (A) (A) (A) (A) (A) (A) (A) (A) (A) (A)
                 (A) (A) (A) (A) (A) (A) (A) (A) (A) (A) (A) (A)
                 (A) (A) (A) (A) (A) (A) (A) (A) (A) (A) (A) (A)
                 (A) (A) (A) (A) (A) (A) (A) (A) (A) (A) (A) (A)
                 (A) (A) (A) (A) (A) (A) (A) (A) (A) (A) (A) (A)
                 (A) (A) (A) (A) (A) (A) (A) (A) (A) (A) (A) (A)
                 (A) (A) (A) (A) (A) (A) (A) (A) (A) (A) (A) (A)
                 (A) (A) (A) (A) (A) (A) (A) (A) (A) (A) (A) (A)
                 (A) (A) (A) (A) (A) (A) (A) (A) (A) (A) (A) (A)
                 (A) (A) (A) (A) (A) (A) (A) (A) (A) (A) (A) (A)
                 (A) (A) (A) (A) (A) (A) (A) (A) (A) (A) (A) (A)
                 (A) (A) (A) (A) (A) (A) (A) (A) (A) (A) (A) (A)
                 (A) (A) (A) (A) (A) (A) (A) (A) (A) (A) (A) (A)
                 (A) (A) (A) (A) (A) (A) (A) (A) (A) (A) (A) (A)
                 (A) (A) (A) (A) (A) (A) (A) (A) (A) (A) (A) (A)
                 (A) (A) (A) (A) (A) (A) (A) (A) (A) (A) (A) (A)
                 (A) (A) (A) (A) (A) (A) (A) (A) (A) (A) (A) (A)
                 (A) (A) (A) (A) (A) (A) (A) (A) (A) (A) (A) (A)
                 (A) (A) (A) (A) (A) (A) (A) (A) (A) (A) (A) (A)
                 (A) (A) (A) (A) (A) (A) (A) (A) (A) (A) (A) (A)
                 (A) (A) (A) (A) (A) (A) (A) (A) (A) (A) (A) (A)
                 (A) (A) (A) (A) (A) (A) (A) (A) (A) (A) (A) (A)
                 (A) (A) (A) (A) (A) (A) (A) (A) (A)
 The electronic state is 1-A.
 Alpha  occ. eigenvalues -- -101.57074-101.57027-101.56879-101.56792 -10.26615
 Alpha  occ. eigenvalues --  -10.26305 -10.26275 -10.26218 -10.22429 -10.21920
 Alpha  occ. eigenvalues --  -10.21405 -10.21250 -10.20970 -10.20945 -10.20942
 Alpha  occ. eigenvalues --  -10.20605  -9.48528  -9.48500  -9.48336  -9.48250
 Alpha  occ. eigenvalues --   -7.24995  -7.24967  -7.24816  -7.24732  -7.24010
 Alpha  occ. eigenvalues --   -7.23985  -7.23972  -7.23933  -7.23819  -7.23761
 Alpha  occ. eigenvalues --   -7.23732  -7.23675  -0.93484  -0.92701  -0.89333
 Alpha  occ. eigenvalues --   -0.87234  -0.86587  -0.84449  -0.79135  -0.77173
 Alpha  occ. eigenvalues --   -0.76443  -0.73398  -0.65186  -0.64864  -0.63152
 Alpha  occ. eigenvalues --   -0.60550  -0.55435  -0.52269  -0.51922  -0.50388
 Alpha  occ. eigenvalues --   -0.49276  -0.47883  -0.46026  -0.45745  -0.45687
 Alpha  occ. eigenvalues --   -0.43484  -0.42984  -0.42063  -0.40104  -0.39337
 Alpha  occ. eigenvalues --   -0.38992  -0.37983  -0.36054  -0.35434  -0.34100
 Alpha  occ. eigenvalues --   -0.33905  -0.33623  -0.33041  -0.32026  -0.28573
 Alpha  occ. eigenvalues --   -0.27916  -0.27198  -0.25535
 Alpha virt. eigenvalues --   -0.06284  -0.05236  -0.04297  -0.02916  -0.01878
 Alpha virt. eigenvalues --   -0.01619  -0.00569   0.00678   0.01162   0.01772
 Alpha virt. eigenvalues --    0.02243   0.02552   0.03346   0.03818   0.04197
 Alpha virt. eigenvalues --    0.04791   0.05156   0.05848   0.06201   0.06690
 Alpha virt. eigenvalues --    0.07092   0.07630   0.08283   0.08538   0.09099
 Alpha virt. eigenvalues --    0.09334   0.09738   0.10411   0.10519   0.10871
 Alpha virt. eigenvalues --    0.11315   0.11733   0.11878   0.12154   0.12255
 Alpha virt. eigenvalues --    0.13217   0.13412   0.13605   0.14027   0.14737
 Alpha virt. eigenvalues --    0.15159   0.15335   0.16025   0.16282   0.16857
 Alpha virt. eigenvalues --    0.17029   0.17235   0.17543   0.17955   0.18425
 Alpha virt. eigenvalues --    0.18713   0.18788   0.19626   0.19899   0.20282
 Alpha virt. eigenvalues --    0.20734   0.20754   0.21304   0.22149   0.22353
 Alpha virt. eigenvalues --    0.22695   0.22834   0.23506   0.23771   0.24371
 Alpha virt. eigenvalues --    0.24587   0.25098   0.25424   0.25639   0.25925
 Alpha virt. eigenvalues --    0.26231   0.26957   0.27566   0.27990   0.28509
 Alpha virt. eigenvalues --    0.28718   0.29095   0.29451   0.29852   0.30250
 Alpha virt. eigenvalues --    0.30654   0.31558   0.32456   0.33087   0.33722
 Alpha virt. eigenvalues --    0.34679   0.35875   0.41254   0.42158   0.42645
 Alpha virt. eigenvalues --    0.43939   0.44668   0.45055   0.45572   0.45920
 Alpha virt. eigenvalues --    0.46818   0.47217   0.47517   0.48024   0.48275
 Alpha virt. eigenvalues --    0.49578   0.50121   0.50722   0.52119   0.53487
 Alpha virt. eigenvalues --    0.55159   0.55669   0.56252   0.56965   0.57179
 Alpha virt. eigenvalues --    0.57663   0.58344   0.58704   0.59784   0.60510
 Alpha virt. eigenvalues --    0.61625   0.61989   0.62753   0.62899   0.64266
 Alpha virt. eigenvalues --    0.65161   0.65819   0.66732   0.67173   0.68249
 Alpha virt. eigenvalues --    0.68402   0.68788   0.69406   0.70049   0.70826
 Alpha virt. eigenvalues --    0.71188   0.72482   0.72887   0.74696   0.77332
 Alpha virt. eigenvalues --    0.80586   0.81393   0.82150   0.82717   0.83567
 Alpha virt. eigenvalues --    0.84010   0.84201   0.84740   0.84991   0.85209
 Alpha virt. eigenvalues --    0.85328   0.85629   0.85764   0.86163   0.86825
 Alpha virt. eigenvalues --    0.87836   0.88197   0.88790   0.89368   0.89965
 Alpha virt. eigenvalues --    0.90827   0.91186   0.92675   0.93250   0.93841
 Alpha virt. eigenvalues --    0.94226   0.94400   0.94700   0.96189   0.96692
 Alpha virt. eigenvalues --    0.97504   0.98942   0.99960   1.00669   1.02225
 Alpha virt. eigenvalues --    1.03669   1.04973   1.07115   1.07902   1.09552
 Alpha virt. eigenvalues --    1.11234   1.12861   1.13802   1.16477   1.18613
 Alpha virt. eigenvalues --    1.23241   1.23605   1.24135   1.25135   1.25796
 Alpha virt. eigenvalues --    1.27279   1.28604   1.30081   1.30685   1.31199
 Alpha virt. eigenvalues --    1.33516   1.35645   1.40283   1.44346   1.49244
 Alpha virt. eigenvalues --    1.49565   1.49917   1.50804   1.53283   1.54048
 Alpha virt. eigenvalues --    1.54488   1.56364   1.56808   1.60123   1.60981
 Alpha virt. eigenvalues --    1.62514   1.64528   1.66926   1.68057   1.69163
 Alpha virt. eigenvalues --    1.71373   1.71967   1.72915   1.75566   1.78943
 Alpha virt. eigenvalues --    1.81525   1.83456   1.85124   1.86339   1.88975
 Alpha virt. eigenvalues --    1.89995   1.91425   1.91581   1.92540   1.93242
 Alpha virt. eigenvalues --    1.94836   1.95590   1.96119   1.97920   1.99559
 Alpha virt. eigenvalues --    1.99962   2.03860   2.04932   2.05870   2.07579
 Alpha virt. eigenvalues --    2.12359   2.13271   2.16402   2.18989   2.22926
 Alpha virt. eigenvalues --    2.24468   2.26206   2.27270   2.27449   2.29308
 Alpha virt. eigenvalues --    2.29606   2.30506   2.33927   2.35541   2.39024
 Alpha virt. eigenvalues --    2.40087   2.40934   2.43009   2.44035   2.47657
 Alpha virt. eigenvalues --    2.50383   2.51994   2.54500   2.54955   2.55668
 Alpha virt. eigenvalues --    2.57222   2.59424   2.61346   2.65341   2.66221
 Alpha virt. eigenvalues --    2.67932   2.68505   2.71006   2.71899   2.73410
 Alpha virt. eigenvalues --    2.74279   2.75248   2.75584   2.77667   2.78328
 Alpha virt. eigenvalues --    2.78990   2.79877   2.83127   2.83460   2.84024
 Alpha virt. eigenvalues --    2.84510   2.88498   2.91353   2.97848   2.98980
 Alpha virt. eigenvalues --    3.06632   3.07888   3.08865   3.14003   3.14512
 Alpha virt. eigenvalues --    3.15905   3.18697   3.21824   3.23767   3.31890
 Alpha virt. eigenvalues --    3.34915   3.40565   3.43625   3.51707   3.53292
 Alpha virt. eigenvalues --    3.58594   3.67397   3.72798   3.79408   3.84819
 Alpha virt. eigenvalues --    3.86815   4.05417   4.06779   4.11852   4.12472
 Alpha virt. eigenvalues --    4.37866   4.80101   4.82910   9.75548   9.76589
 Alpha virt. eigenvalues --    9.80015   9.80496  23.41473  23.56500  23.85866
 Alpha virt. eigenvalues --   23.88878  23.89342  23.91994  23.96976  24.02441
 Alpha virt. eigenvalues --   24.05084  24.06613  24.12710  24.15028  25.78729
 Alpha virt. eigenvalues --   25.82065  25.86971  25.87649  26.08364  26.10187
 Alpha virt. eigenvalues --   26.17101  26.25755  26.50248  26.58183  26.71332
 Alpha virt. eigenvalues --   26.76634 215.74603 215.75544 215.79588 215.80287
          Condensed to atoms (all electrons):
               1          2          3          4          5          6
     1  C   30.732828  -2.611826  -2.912801  -5.126886  -4.998648  -0.949647
     2  C   -2.611826  29.427723  -1.730295  -0.193900  -1.888659 -17.179344
     3  C   -2.912801  -1.730295  18.518278  -0.670278  -7.714287  -0.634448
     4  C   -5.126886  -0.193900  -0.670278  24.889892  -6.345940  -3.837591
     5  C   -4.998648  -1.888659  -7.714287  -6.345940  25.566909  -0.662159
     6  C   -0.949647 -17.179344  -0.634448  -3.837591  -0.662159  32.722729
     7  C   -2.559918  -0.785477   1.472489  -1.946118   1.160648  -3.599110
     8  C    7.250509   4.712760  -1.403698   1.715530  -2.995145   0.712431
     9  C   -1.087700  -0.172338  -0.078882   0.022177   0.232696   0.114279
    10  C    0.105671   0.345667   0.097120   0.039288  -0.110732  -0.124381
    11  C   -2.364480  -0.796502   0.073389  -0.189328   1.057245   0.161884
    12  C   -9.723657  -3.583033   1.711659  -1.208189   3.181273  -0.384489
    13  H    0.048649   0.327444  -0.043069   0.004148  -0.020320   0.031043
    14  H    0.005457  -0.030366   0.325705   0.036023   0.054877  -0.044352
    15  H    0.013038   0.057326  -0.007268   0.021507   0.045612   0.135751
    16  H    0.001385   0.095896   0.003256   0.003990  -0.011304  -0.053423
    17  H    0.019724   0.002164  -0.000300   0.000332  -0.001032  -0.000728
    18  H    0.021802   0.003343  -0.000275   0.000155  -0.001905  -0.003560
    19  Cl  -0.038077  -0.162160  -0.098018  -0.093023   0.013548   0.328224
    20  Cl  -0.581386   0.192171   0.328111  -0.212263  -0.801224   0.272699
    21  Cl  -0.016633   0.012383   0.002653  -0.000321   0.001598  -0.006863
    22  Cl  -0.038951   0.244935  -0.266318  -0.979529   0.180088   0.290163
               7          8          9         10         11         12
     1  C   -2.559918   7.250509  -1.087700   0.105671  -2.364480  -9.723657
     2  C   -0.785477   4.712760  -0.172338   0.345667  -0.796502  -3.583033
     3  C    1.472489  -1.403698  -0.078882   0.097120   0.073389   1.711659
     4  C   -1.946118   1.715530   0.022177   0.039288  -0.189328  -1.208189
     5  C    1.160648  -2.995145   0.232696  -0.110732   1.057245   3.181273
     6  C   -3.599110   0.712431   0.114279  -0.124381   0.161884  -0.384489
     7  C   32.914757 -12.911068  -0.357281  -6.353591   3.846742  -3.947483
     8  C  -12.911068  29.225530  -3.148432   1.033091  -4.375548 -13.598569
     9  C   -0.357281  -3.148432  18.387187  -2.472118  -7.825377   2.273144
    10  C   -6.353591   1.033091  -2.472118  16.405065  -2.262156  -0.743339
    11  C    3.846742  -4.375548  -7.825377  -2.262156  31.079178 -10.264254
    12  C   -3.947483 -13.598569   2.273144  -0.743339 -10.264254  40.861632
    13  H   -0.023631   0.035607  -0.007371   0.000758   0.009087  -0.007040
    14  H    0.007190  -0.004115  -0.000384  -0.000076  -0.000076   0.000423
    15  H    0.010484  -0.097162   0.002215  -0.000974   0.025001   0.148858
    16  H   -0.054121   0.486761  -0.092016   0.033746  -0.032600  -0.036393
    17  H   -0.048755   0.009997   0.239672   0.097398   0.038642  -0.000811
    18  H    0.079955   0.025668   0.029397   0.036378   0.083383   0.079015
    19  Cl  -1.353852  -0.153658   0.295516   0.042524  -1.114150   1.328894
    20  Cl  -0.012829  -0.026139  -0.002204   0.004472   0.019415   0.037530
    21  Cl  -0.135211   0.170456   0.217276  -1.131449   0.169951   0.027555
    22  Cl  -0.087845   0.084791   0.002013   0.002387  -0.015820  -0.088794
              13         14         15         16         17         18
     1  C    0.048649   0.005457   0.013038   0.001385   0.019724   0.021802
     2  C    0.327444  -0.030366   0.057326   0.095896   0.002164   0.003343
     3  C   -0.043069   0.325705  -0.007268   0.003256  -0.000300  -0.000275
     4  C    0.004148   0.036023   0.021507   0.003990   0.000332   0.000155
     5  C   -0.020320   0.054877   0.045612  -0.011304  -0.001032  -0.001905
     6  C    0.031043  -0.044352   0.135751  -0.053423  -0.000728  -0.003560
     7  C   -0.023631   0.007190   0.010484  -0.054121  -0.048755   0.079955
     8  C    0.035607  -0.004115  -0.097162   0.486761   0.009997   0.025668
     9  C   -0.007371  -0.000384   0.002215  -0.092016   0.239672   0.029397
    10  C    0.000758  -0.000076  -0.000974   0.033746   0.097398   0.036378
    11  C    0.009087  -0.000076   0.025001  -0.032600   0.038642   0.083383
    12  C   -0.007040   0.000423   0.148858  -0.036393  -0.000811   0.079015
    13  H    0.524105  -0.007129  -0.000228  -0.000476   0.000021   0.000001
    14  H   -0.007129   0.509302   0.000054   0.000035   0.000000   0.000000
    15  H   -0.000228   0.000054   0.499358   0.000023   0.000000   0.000011
    16  H   -0.000476   0.000035   0.000023   0.522116  -0.007449   0.000042
    17  H    0.000021   0.000000   0.000000  -0.007449   0.510356  -0.000242
    18  H    0.000001   0.000000   0.000011   0.000042  -0.000242   0.494812
    19  Cl  -0.002607  -0.000258  -0.005818  -0.001452   0.000951  -0.009188
    20  Cl   0.000206   0.000262  -0.003747  -0.000132  -0.000002  -0.000021
    21  Cl  -0.000069  -0.000001  -0.000096   0.000396  -0.013398  -0.012478
    22  Cl  -0.000304  -0.007278  -0.000984  -0.000115   0.000000  -0.000000
              19         20         21         22
     1  C   -0.038077  -0.581386  -0.016633  -0.038951
     2  C   -0.162160   0.192171   0.012383   0.244935
     3  C   -0.098018   0.328111   0.002653  -0.266318
     4  C   -0.093023  -0.212263  -0.000321  -0.979529
     5  C    0.013548  -0.801224   0.001598   0.180088
     6  C    0.328224   0.272699  -0.006863   0.290163
     7  C   -1.353852  -0.012829  -0.135211  -0.087845
     8  C   -0.153658  -0.026139   0.170456   0.084791
     9  C    0.295516  -0.002204   0.217276   0.002013
    10  C    0.042524   0.004472  -1.131449   0.002387
    11  C   -1.114150   0.019415   0.169951  -0.015820
    12  C    1.328894   0.037530   0.027555  -0.088794
    13  H   -0.002607   0.000206  -0.000069  -0.000304
    14  H   -0.000258   0.000262  -0.000001  -0.007278
    15  H   -0.005818  -0.003747  -0.000096  -0.000984
    16  H   -0.001452  -0.000132   0.000396  -0.000115
    17  H    0.000951  -0.000002  -0.013398   0.000000
    18  H   -0.009188  -0.000021  -0.012478  -0.000000
    19  Cl  17.644342   0.012931  -0.028781   0.006342
    20  Cl   0.012931  17.398967   0.000110  -0.144105
    21  Cl  -0.028781   0.000110  17.353436   0.000012
    22  Cl   0.006342  -0.144105   0.000012  17.345277
 Mulliken charges:
               1
     1  C    0.811545
     2  C   -0.287912
     3  C   -0.972725
     4  C    0.070323
     5  C    0.056860
     6  C   -1.289109
     7  C    0.684026
     8  C   -0.749597
     9  C   -0.571471
    10  C    0.955248
    11  C   -1.323625
    12  C   -0.063934
    13  H    0.131174
    14  H    0.154709
    15  H    0.157039
    16  H    0.141833
    17  H    0.153458
    18  H    0.173707
    19  Cl   0.387769
    20  Cl   0.517178
    21  Cl   0.389471
    22  Cl   0.474033
 Sum of Mulliken charges =  -0.00000
 Mulliken charges with hydrogens summed into heavy atoms:
               1
     1  C    0.811545
     2  C   -0.156738
     3  C   -0.818016
     4  C    0.070323
     5  C    0.056860
     6  C   -1.132071
     7  C    0.684026
     8  C   -0.607764
     9  C   -0.418012
    10  C    0.955248
    11  C   -1.149918
    12  C   -0.063934
    19  Cl   0.387769
    20  Cl   0.517178
    21  Cl   0.389471
    22  Cl   0.474033
 Electronic spatial extent (au):  <R**2>=           7230.9249
 Charge=             -0.0000 electrons
 Dipole moment (field-independent basis, Debye):
    X=              1.3017    Y=             -2.0640    Z=             -0.0596  Tot=              2.4409
 Quadrupole moment (field-independent basis, Debye-Ang):
   XX=           -132.1060   YY=           -113.8843   ZZ=           -121.1973
   XY=              0.8914   XZ=              2.1173   YZ=              0.9465
 Traceless Quadrupole moment (field-independent basis, Debye-Ang):
   XX=             -9.7101   YY=              8.5115   ZZ=              1.1985
   XY=              0.8914   XZ=              2.1173   YZ=              0.9465
 Octapole moment (field-independent basis, Debye-Ang**2):
  XXX=             -7.7053  YYY=             -1.1715  ZZZ=             -0.1055  XYY=              2.0776
  XXY=              4.0610  XXZ=             -6.4658  XZZ=             -4.9982  YZZ=              1.0320
  YYZ=             -1.1659  XYZ=            -11.6463
 Hexadecapole moment (field-independent basis, Debye-Ang**3):
 XXXX=          -8090.9442 YYYY=          -1155.2132 ZZZZ=           -535.0562 XXXY=             24.2127
 XXXZ=             -7.5170 YYYX=            -17.8697 YYYZ=              0.9848 ZZZX=             -9.7267
 ZZZY=              2.7083 XXYY=          -1467.6452 XXZZ=          -1415.5009 YYZZ=           -267.3821
 XXYZ=            -11.1516 YYXZ=             18.6551 ZZXY=             -5.0625
 N-N= 1.405267280366D+03 E-N=-8.254839923234D+03  KE= 2.295553273129D+03
 1\1\GINC-LOCALHOST\FOpt\RB3LYP\6-311+G(d,p)\C12H6Cl4\GOUR\16-Mar-2022\
 0\\# opt b3lyp/6-311+g(d,p) scf=xqc\\Title Card Required\\0,1\C,-0.899
 9986907,1.8773575547,0.7850544589\C,0.4891447011,1.8575279881,0.953865
 4411\C,1.2240660582,3.0366044051,0.9318633106\C,0.5869722544,4.2593353
 351,0.7347344338\C,-0.8000181609,4.2904652069,0.5591388324\C,-1.532551
 1453,3.1072176873,0.5865625186\C,-1.6704177466,0.6038947795,0.76706503
 48\C,-1.3323114542,-0.3865600339,-0.1673260699\C,-2.0068449605,-1.5991
 24451,-0.2427776257\C,-3.0524949589,-1.8387900892,0.6418380371\C,-3.41
 92862494,-0.8928014851,1.5906236205\C,-2.7266046604,0.3143732283,1.643
 7841657\H,0.9990974788,0.9160731962,1.1202724283\H,2.2972368534,3.0188
 011858,1.0724612358\H,-2.6034245112,3.1557199738,0.4408702626\H,-0.527
 3807365,-0.1857662207,-0.8647317368\H,-1.7309276208,-2.3421182386,-0.9
 793990782\H,-4.2237245798,-1.0898220099,2.2855072182\Cl,-3.2005077511,
 1.451161551,2.8982936192\Cl,-1.650495288,5.7939328376,0.2954473106\Cl,
 -3.9250238858,-3.3589612693,0.5680488604\Cl,1.5454795942,5.7187184782,
 0.7126531319\\Version=EM64L-G16RevB.01\State=1-A\HF=-2301.9025797\RMSD
 =3.685e-09\RMSF=5.530e-06\Dipole=0.4403683,-0.7993183,-0.2990331\Quadr
 upole=4.3136593,-5.5293599,1.2157006,-4.4765921,-0.8233232,1.9603515\P
 G=C01 [X(C12H6Cl4)]\\@


 IT IS THE BEHAVIOR AND DISTRIBUTION OF THE ELECTRONS 
 AROUND THE NUCLEUS THAT GIVES THE FUNDAMENTAL 
 CHARACTER OF AN ATOM:  IT MUST BE THE SAME FOR MOLECULES.

                               -- C. A. COULSON, 1951
 Job cpu time:       0 days 11 hours 37 minutes 23.1 seconds.
 Elapsed time:       0 days  2 hours 54 minutes 52.1 seconds.
 File lengths (MBytes):  RWF=    121 Int=      0 D2E=      0 Chk=     19 Scr=      1
 Normal termination of Gaussian 16 at Wed Mar 16 02:28:55 2022.
