 Entering Gaussian System, Link 0=g16
 Input=2,3prime,4prime,5prime-Tetrachlorobiphenyl.gjf
 Output=2,3prime,4prime,5prime-Tetrachlorobiphenyl.log
 Initial command:
 /opt/g16/l1.exe "/scratch/gour/Gau-24095.inp" -scrdir="/scratch/gour/"
 Entering Link 1 = /opt/g16/l1.exe PID=     24096.
  
 Copyright (c) 1988-2017, Gaussian, Inc.  All Rights Reserved.
  
 This is part of the Gaussian(R) 16 program.  It is based on
 the Gaussian(R) 09 system (copyright 2009, Gaussian, Inc.),
 the Gaussian(R) 03 system (copyright 2003, Gaussian, Inc.),
 the Gaussian(R) 98 system (copyright 1998, Gaussian, Inc.),
 the Gaussian(R) 94 system (copyright 1995, Gaussian, Inc.),
 the Gaussian 92(TM) system (copyright 1992, Gaussian, Inc.),
 the Gaussian 90(TM) system (copyright 1990, Gaussian, Inc.),
 the Gaussian 88(TM) system (copyright 1988, Gaussian, Inc.),
 the Gaussian 86(TM) system (copyright 1986, Carnegie Mellon
 University), and the Gaussian 82(TM) system (copyright 1983,
 Carnegie Mellon University). Gaussian is a federally registered
 trademark of Gaussian, Inc.
  
 This software contains proprietary and confidential information,
 including trade secrets, belonging to Gaussian, Inc.
  
 This software is provided under written license and may be
 used, copied, transmitted, or stored only in accord with that
 written license.
  
 The following legend is applicable only to US Government
 contracts under FAR:
  
                    RESTRICTED RIGHTS LEGEND
  
 Use, reproduction and disclosure by the US Government is
 subject to restrictions as set forth in subparagraphs (a)
 and (c) of the Commercial Computer Software - Restricted
 Rights clause in FAR 52.227-19.
  
 Gaussian, Inc.
 340 Quinnipiac St., Bldg. 40, Wallingford CT 06492
  
  
 ---------------------------------------------------------------
 Warning -- This program may not be used in any manner that
 competes with the business of Gaussian, Inc. or will provide
 assistance to any competitor of Gaussian, Inc.  The licensee
 of this program is prohibited from giving any competitor of
 Gaussian, Inc. access to this program.  By using this program,
 the user acknowledges that Gaussian, Inc. is engaged in the
 business of creating and licensing software in the field of
 computational chemistry and represents and warrants to the
 licensee that it is not a competitor of Gaussian, Inc. and that
 it will not use this program in any manner prohibited above.
 ---------------------------------------------------------------
  

 Cite this work as:
 Gaussian 16, Revision B.01,
 M. J. Frisch, G. W. Trucks, H. B. Schlegel, G. E. Scuseria, 
 M. A. Robb, J. R. Cheeseman, G. Scalmani, V. Barone, 
 G. A. Petersson, H. Nakatsuji, X. Li, M. Caricato, A. V. Marenich, 
 J. Bloino, B. G. Janesko, R. Gomperts, B. Mennucci, H. P. Hratchian, 
 J. V. Ortiz, A. F. Izmaylov, J. L. Sonnenberg, D. Williams-Young, 
 F. Ding, F. Lipparini, F. Egidi, J. Goings, B. Peng, A. Petrone, 
 T. Henderson, D. Ranasinghe, V. G. Zakrzewski, J. Gao, N. Rega, 
 G. Zheng, W. Liang, M. Hada, M. Ehara, K. Toyota, R. Fukuda, 
 J. Hasegawa, M. Ishida, T. Nakajima, Y. Honda, O. Kitao, H. Nakai, 
 T. Vreven, K. Throssell, J. A. Montgomery, Jr., J. E. Peralta, 
 F. Ogliaro, M. J. Bearpark, J. J. Heyd, E. N. Brothers, K. N. Kudin, 
 V. N. Staroverov, T. A. Keith, R. Kobayashi, J. Normand, 
 K. Raghavachari, A. P. Rendell, J. C. Burant, S. S. Iyengar, 
 J. Tomasi, M. Cossi, J. M. Millam, M. Klene, C. Adamo, R. Cammi, 
 J. W. Ochterski, R. L. Martin, K. Morokuma, O. Farkas, 
 J. B. Foresman, and D. J. Fox, Gaussian, Inc., Wallingford CT, 2016.
 
 ******************************************
 Gaussian 16:  EM64L-G16RevB.01 20-Dec-2017
                15-Mar-2022 
 ******************************************
 %mem=10GB
 %nprocshared=4
 Will use up to    4 processors via shared memory.
 --------------------------------
 # opt b3lyp/6-311+g(d,p) scf=xqc
 --------------------------------
 1/18=20,19=15,26=3,38=1/1,3;
 2/9=110,12=2,17=6,18=5,40=1/2;
 3/5=4,6=6,7=111,11=2,25=1,30=1,71=1,74=-5/1,2,3;
 4//1;
 5/5=2,8=3,13=1,38=5/2,8;
 6/7=2,8=2,9=2,10=2,28=1/1;
 7//1,2,3,16;
 1/18=20,19=15,26=3/3(2);
 2/9=110/2;
 99//99;
 2/9=110/2;
 3/5=4,6=6,7=111,11=2,25=1,30=1,71=1,74=-5/1,2,3;
 4/5=5,16=3,69=1/1;
 5/5=2,8=3,13=1,38=5/2,8;
 7//1,2,3,16;
 1/18=20,19=15,26=3/3(-5);
 2/9=110/2;
 6/7=2,8=2,9=2,10=2,19=2,28=1/1;
 99/9=1/99;
 -------------------
 Title Card Required
 -------------------
 Symbolic Z-matrix:
 Charge =  0 Multiplicity = 1
 C                    -1.64046   2.14394   0.68045 
 C                    -0.30808   2.17382   0.24711 
 C                     0.39982   3.38327   0.24104 
 C                    -0.22467   4.56284   0.66831 
 C                    -1.55705   4.53295   1.10165 
 C                    -2.26495   3.3235    1.10773 
 C                    -2.41836   0.81487   0.68713 
 C                    -1.79388  -0.3647    0.25985 
 C                    -2.50177  -1.57415   0.26593 
 C                    -3.83415  -1.60403   0.69928 
 C                    -4.45864  -0.42447   1.12655 
 C                    -3.75074   0.78498   1.12048 
 H                     0.16873   1.2732   -0.07912 
 H                    -3.28225   3.30068   1.4386 
 H                    -0.77657  -0.34188  -0.07102 
 H                    -2.02496  -2.47477  -0.06031 
 H                    -4.37464  -2.52748   0.70392 
 H                    -5.47594  -0.44729   1.45743 
 Cl                   -4.53503   2.26638   1.65709 
 Cl                   -2.34134   6.01435   1.63826 
 Cl                    0.66436   6.08177   0.66068 
 Cl                    2.07314   3.42081  -0.3032 
 

 GradGradGradGradGradGradGradGradGradGradGradGradGradGradGradGradGradGrad
 Berny optimization.
 Initialization pass.
                           ----------------------------
                           !    Initial Parameters    !
                           ! (Angstroms and Degrees)  !
 --------------------------                            --------------------------
 ! Name  Definition              Value          Derivative Info.                !
 --------------------------------------------------------------------------------
 ! R1    R(1,2)                  1.4014         estimate D2E/DX2                !
 ! R2    R(1,6)                  1.4014         estimate D2E/DX2                !
 ! R3    R(1,7)                  1.54           estimate D2E/DX2                !
 ! R4    R(2,3)                  1.4014         estimate D2E/DX2                !
 ! R5    R(2,13)                 1.07           estimate D2E/DX2                !
 ! R6    R(3,4)                  1.4014         estimate D2E/DX2                !
 ! R7    R(3,22)                 1.76           estimate D2E/DX2                !
 ! R8    R(4,5)                  1.4014         estimate D2E/DX2                !
 ! R9    R(4,21)                 1.76           estimate D2E/DX2                !
 ! R10   R(5,6)                  1.4014         estimate D2E/DX2                !
 ! R11   R(5,20)                 1.76           estimate D2E/DX2                !
 ! R12   R(6,14)                 1.07           estimate D2E/DX2                !
 ! R13   R(7,8)                  1.4014         estimate D2E/DX2                !
 ! R14   R(7,12)                 1.4014         estimate D2E/DX2                !
 ! R15   R(8,9)                  1.4014         estimate D2E/DX2                !
 ! R16   R(8,15)                 1.07           estimate D2E/DX2                !
 ! R17   R(9,10)                 1.4014         estimate D2E/DX2                !
 ! R18   R(9,16)                 1.07           estimate D2E/DX2                !
 ! R19   R(10,11)                1.4014         estimate D2E/DX2                !
 ! R20   R(10,17)                1.07           estimate D2E/DX2                !
 ! R21   R(11,12)                1.4014         estimate D2E/DX2                !
 ! R22   R(11,18)                1.07           estimate D2E/DX2                !
 ! R23   R(12,19)                1.76           estimate D2E/DX2                !
 ! A1    A(2,1,6)              120.0            estimate D2E/DX2                !
 ! A2    A(2,1,7)              120.0            estimate D2E/DX2                !
 ! A3    A(6,1,7)              120.0            estimate D2E/DX2                !
 ! A4    A(1,2,3)              120.0            estimate D2E/DX2                !
 ! A5    A(1,2,13)             120.0            estimate D2E/DX2                !
 ! A6    A(3,2,13)             120.0            estimate D2E/DX2                !
 ! A7    A(2,3,4)              120.0            estimate D2E/DX2                !
 ! A8    A(2,3,22)             120.0            estimate D2E/DX2                !
 ! A9    A(4,3,22)             120.0            estimate D2E/DX2                !
 ! A10   A(3,4,5)              120.0            estimate D2E/DX2                !
 ! A11   A(3,4,21)             120.0            estimate D2E/DX2                !
 ! A12   A(5,4,21)             120.0            estimate D2E/DX2                !
 ! A13   A(4,5,6)              120.0            estimate D2E/DX2                !
 ! A14   A(4,5,20)             120.0            estimate D2E/DX2                !
 ! A15   A(6,5,20)             120.0            estimate D2E/DX2                !
 ! A16   A(1,6,5)              120.0            estimate D2E/DX2                !
 ! A17   A(1,6,14)             120.0            estimate D2E/DX2                !
 ! A18   A(5,6,14)             120.0            estimate D2E/DX2                !
 ! A19   A(1,7,8)              120.0            estimate D2E/DX2                !
 ! A20   A(1,7,12)             120.0            estimate D2E/DX2                !
 ! A21   A(8,7,12)             120.0            estimate D2E/DX2                !
 ! A22   A(7,8,9)              120.0            estimate D2E/DX2                !
 ! A23   A(7,8,15)             120.0            estimate D2E/DX2                !
 ! A24   A(9,8,15)             120.0            estimate D2E/DX2                !
 ! A25   A(8,9,10)             120.0            estimate D2E/DX2                !
 ! A26   A(8,9,16)             120.0            estimate D2E/DX2                !
 ! A27   A(10,9,16)            120.0            estimate D2E/DX2                !
 ! A28   A(9,10,11)            120.0            estimate D2E/DX2                !
 ! A29   A(9,10,17)            120.0            estimate D2E/DX2                !
 ! A30   A(11,10,17)           120.0            estimate D2E/DX2                !
 ! A31   A(10,11,12)           120.0            estimate D2E/DX2                !
 ! A32   A(10,11,18)           120.0            estimate D2E/DX2                !
 ! A33   A(12,11,18)           120.0            estimate D2E/DX2                !
 ! A34   A(7,12,11)            120.0            estimate D2E/DX2                !
 ! A35   A(7,12,19)            120.0            estimate D2E/DX2                !
 ! A36   A(11,12,19)           120.0            estimate D2E/DX2                !
 ! D1    D(6,1,2,3)              0.0001         estimate D2E/DX2                !
 ! D2    D(6,1,2,13)           180.0            estimate D2E/DX2                !
 ! D3    D(7,1,2,3)           -180.0            estimate D2E/DX2                !
 ! D4    D(7,1,2,13)            -0.0001         estimate D2E/DX2                !
 ! D5    D(2,1,6,5)             -0.0001         estimate D2E/DX2                !
 ! D6    D(2,1,6,14)           180.0            estimate D2E/DX2                !
 ! D7    D(7,1,6,5)            180.0            estimate D2E/DX2                !
 ! D8    D(7,1,6,14)             0.0            estimate D2E/DX2                !
 ! D9    D(2,1,7,8)             -0.0001         estimate D2E/DX2                !
 ! D10   D(2,1,7,12)           179.9998         estimate D2E/DX2                !
 ! D11   D(6,1,7,8)            179.9999         estimate D2E/DX2                !
 ! D12   D(6,1,7,12)            -0.0002         estimate D2E/DX2                !
 ! D13   D(1,2,3,4)              0.0            estimate D2E/DX2                !
 ! D14   D(1,2,3,22)           180.0            estimate D2E/DX2                !
 ! D15   D(13,2,3,4)          -179.9999         estimate D2E/DX2                !
 ! D16   D(13,2,3,22)            0.0001         estimate D2E/DX2                !
 ! D17   D(2,3,4,5)             -0.0001         estimate D2E/DX2                !
 ! D18   D(2,3,4,21)           180.0            estimate D2E/DX2                !
 ! D19   D(22,3,4,5)           179.9999         estimate D2E/DX2                !
 ! D20   D(22,3,4,21)            0.0            estimate D2E/DX2                !
 ! D21   D(3,4,5,6)              0.0001         estimate D2E/DX2                !
 ! D22   D(3,4,5,20)          -179.9999         estimate D2E/DX2                !
 ! D23   D(21,4,5,6)          -180.0            estimate D2E/DX2                !
 ! D24   D(21,4,5,20)            0.0            estimate D2E/DX2                !
 ! D25   D(4,5,6,1)              0.0            estimate D2E/DX2                !
 ! D26   D(4,5,6,14)           179.9999         estimate D2E/DX2                !
 ! D27   D(20,5,6,1)           180.0            estimate D2E/DX2                !
 ! D28   D(20,5,6,14)           -0.0001         estimate D2E/DX2                !
 ! D29   D(1,7,8,9)            179.9999         estimate D2E/DX2                !
 ! D30   D(1,7,8,15)             0.0001         estimate D2E/DX2                !
 ! D31   D(12,7,8,9)             0.0001         estimate D2E/DX2                !
 ! D32   D(12,7,8,15)         -179.9998         estimate D2E/DX2                !
 ! D33   D(1,7,12,11)         -179.9999         estimate D2E/DX2                !
 ! D34   D(1,7,12,19)            0.0            estimate D2E/DX2                !
 ! D35   D(8,7,12,11)           -0.0001         estimate D2E/DX2                !
 ! D36   D(8,7,12,19)          179.9999         estimate D2E/DX2                !
 ! D37   D(7,8,9,10)             0.0            estimate D2E/DX2                !
 ! D38   D(7,8,9,16)           180.0            estimate D2E/DX2                !
 ! D39   D(15,8,9,10)          179.9998         estimate D2E/DX2                !
 ! D40   D(15,8,9,16)           -0.0002         estimate D2E/DX2                !
 ! D41   D(8,9,10,11)            0.0            estimate D2E/DX2                !
 ! D42   D(8,9,10,17)         -179.9999         estimate D2E/DX2                !
 ! D43   D(16,9,10,11)         180.0            estimate D2E/DX2                !
 ! D44   D(16,9,10,17)           0.0001         estimate D2E/DX2                !
 ! D45   D(9,10,11,12)           0.0            estimate D2E/DX2                !
 ! D46   D(9,10,11,18)        -179.9998         estimate D2E/DX2                !
 ! D47   D(17,10,11,12)        179.9999         estimate D2E/DX2                !
 ! D48   D(17,10,11,18)          0.0001         estimate D2E/DX2                !
 ! D49   D(10,11,12,7)           0.0            estimate D2E/DX2                !
 ! D50   D(10,11,12,19)       -179.9999         estimate D2E/DX2                !
 ! D51   D(18,11,12,7)         179.9999         estimate D2E/DX2                !
 ! D52   D(18,11,12,19)         -0.0001         estimate D2E/DX2                !
 --------------------------------------------------------------------------------
 Trust Radius=3.00D-01 FncErr=1.00D-07 GrdErr=1.00D-06 EigMax=2.50D+02 EigMin=1.00D-04
 Number of steps in this run=    121 maximum allowed number of steps=    132.
 GradGradGradGradGradGradGradGradGradGradGradGradGradGradGradGradGradGrad

                          Input orientation:                          
 ---------------------------------------------------------------------
 Center     Atomic      Atomic             Coordinates (Angstroms)
 Number     Number       Type             X           Y           Z
 ---------------------------------------------------------------------
      1          6           0       -1.640458    2.143937    0.680454
      2          6           0       -0.308077    2.173823    0.247108
      3          6           0        0.399817    3.383274    0.241036
      4          6           0       -0.224671    4.562839    0.668310
      5          6           0       -1.557053    4.532953    1.101655
      6          6           0       -2.264946    3.323502    1.107727
      7          6           0       -2.418363    0.814869    0.687128
      8          6           0       -1.793876   -0.364696    0.259853
      9          6           0       -2.501769   -1.574147    0.265928
     10          6           0       -3.834149   -1.604033    0.699277
     11          6           0       -4.458636   -0.424468    1.126553
     12          6           0       -3.750743    0.784983    1.120479
     13          1           0        0.168734    1.273198   -0.079124
     14          1           0       -3.282249    3.300684    1.438597
     15          1           0       -0.776573   -0.341877   -0.071016
     16          1           0       -2.024959   -2.474771   -0.060306
     17          1           0       -4.374640   -2.527477    0.703917
     18          1           0       -5.475937   -0.447288    1.457428
     19         17           0       -4.535028    2.266383    1.657090
     20         17           0       -2.341339    6.014354    1.638260
     21         17           0        0.664364    6.081772    0.660685
     22         17           0        2.073137    3.420807   -0.303198
 ---------------------------------------------------------------------
                    Distance matrix (angstroms):
                    1          2          3          4          5
     1  C    0.000000
     2  C    1.401400   0.000000
     3  C    2.427296   1.401400   0.000000
     4  C    2.802800   2.427296   1.401400   0.000000
     5  C    2.427296   2.802800   2.427296   1.401400   0.000000
     6  C    1.401400   2.427296   2.802800   2.427296   1.401400
     7  C    1.540000   2.548270   3.838989   4.342800   3.838989
     8  C    2.548270   2.941400   4.342800   5.187469   4.975106
     9  C    3.838989   4.342800   5.744200   6.558176   6.235992
    10  C    4.342800   5.187469   6.558176   7.145600   6.558176
    11  C    3.838989   4.975106   6.235992   6.558176   5.744200
    12  C    2.548270   3.813607   4.975106   5.187469   4.342800
    13  H    2.146700   1.070000   2.146700   3.396345   3.872800
    14  H    2.146700   3.396345   3.872800   3.396345   2.146700
    15  H    2.736837   2.578650   3.918930   4.990735   5.074276
    16  H    4.693509   4.965039   6.347206   7.300676   7.118798
    17  H    5.412800   6.232802   7.612271   8.215600   7.612271
    18  H    4.693509   5.919617   7.118798   7.300676   6.347206
    19  Cl   3.057342   4.456874   5.254079   4.983028   3.783409
    20  Cl   4.048303   4.562800   4.048303   2.743718   1.760000
    21  Cl   4.562800   4.048303   2.743718   1.760000   2.743718
    22  Cl   4.048303   2.743718   1.760000   2.743718   4.048303
                    6          7          8          9         10
     6  C    0.000000
     7  C    2.548270   0.000000
     8  C    3.813607   1.401400   0.000000
     9  C    4.975106   2.427296   1.401400   0.000000
    10  C    5.187469   2.802800   2.427296   1.401400   0.000000
    11  C    4.342800   2.427296   2.802800   2.427296   1.401400
    12  C    2.941400   1.401400   2.427296   2.802800   2.427296
    13  H    3.396345   2.736837   2.578650   3.918930   4.990735
    14  H    1.070000   2.736837   4.127917   5.074276   4.990735
    15  H    4.127917   2.146700   1.070000   2.146700   3.396345
    16  H    5.919617   3.396345   2.146700   1.070000   2.146700
    17  H    6.232802   3.872800   3.396345   2.146700   1.070000
    18  H    4.965039   3.396345   3.872800   3.396345   2.146700
    19  Cl   2.563702   2.743718   4.048303   4.562800   4.048303
    20  Cl   2.743718   5.286324   6.549198   7.713260   7.819846
    21  Cl   4.048303   6.102800   6.910901   8.294174   8.905600
    22  Cl   4.562800   5.286324   5.440665   6.797295   7.819846
                   11         12         13         14         15
    11  C    0.000000
    12  C    1.401400   0.000000
    13  H    5.074276   4.127917   0.000000
    14  H    3.918930   2.578650   4.280590   0.000000
    15  H    3.872800   3.396345   1.871400   4.671787   0.000000
    16  H    3.396345   3.872800   4.342800   6.097816   2.471400
    17  H    2.146700   3.396345   5.974992   5.974992   4.280590
    18  H    1.070000   2.146700   6.097816   4.342800   4.942800
    19  Cl   2.743718   1.760000   5.111382   1.639199   4.890332
    20  Cl   6.797295   5.440665   5.632800   2.879094   6.765486
    21  Cl   8.294174   6.910901   4.890332   4.890332   6.623817
    22  Cl   7.713260   6.549198   2.879094   5.632800   4.725732
                   16         17         18         19         20
    16  H    0.000000
    17  H    2.471400   0.000000
    18  H    4.280590   2.471400   0.000000
    19  Cl   5.632800   4.890332   2.879094   0.000000
    20  Cl   8.663168   8.830073   7.184095   4.342800   0.000000
    21  Cl   8.998151   9.975600   8.998151   6.525618   3.161400
    22  Cl   7.184095   8.830073   8.663168   6.988795   5.475705
                   21         22
    21  Cl   0.000000
    22  Cl   3.161400   0.000000
 Stoichiometry    C12H6Cl4
 Framework group  C1[X(C12H6Cl4)]
 Deg. of freedom    60
 Full point group                 C1      NOp   1
 Largest Abelian subgroup         C1      NOp   1
 Largest concise Abelian subgroup C1      NOp   1
                         Standard orientation:                         
 ---------------------------------------------------------------------
 Center     Atomic      Atomic             Coordinates (Angstroms)
 Number     Number       Type             X           Y           Z
 ---------------------------------------------------------------------
      1          6           0       -0.543020    0.372203    0.000002
      2          6           0        0.298676    1.492681    0.000001
      3          6           0        1.689886    1.323989    0.000000
      4          6           0        2.239400    0.034820   -0.000001
      5          6           0        1.397703   -1.085657    0.000002
      6          6           0        0.006493   -0.916966    0.000003
      7          6           0       -2.071823    0.557578    0.000002
      8          6           0       -2.621336    1.846747    0.000004
      9          6           0       -4.012546    2.015439    0.000003
     10          6           0       -4.854242    0.894961    0.000000
     11          6           0       -4.304729   -0.394207   -0.000002
     12          6           0       -2.913519   -0.562899   -0.000001
     13          1           0       -0.120890    2.476990    0.000000
     14          1           0       -0.636160   -1.772475    0.000004
     15          1           0       -1.978683    2.702257    0.000003
     16          1           0       -4.432112    2.999748    0.000004
     17          1           0       -5.916462    1.023761   -0.000002
     18          1           0       -4.947382   -1.249717   -0.000006
     19         17           0       -2.223391   -2.181949   -0.000005
     20         17           0        2.087831   -2.704708    0.000004
     21         17           0        3.986602   -0.177037   -0.000003
     22         17           0        2.746961    2.731182   -0.000002
 ---------------------------------------------------------------------
 Rotational constants (GHZ):           0.5650812           0.2212607           0.1590024
 Standard basis: 6-311+G(d,p) (5D, 7F)
 There are   436 symmetry adapted cartesian basis functions of A   symmetry.
 There are   420 symmetry adapted basis functions of A   symmetry.
   420 basis functions,   692 primitive gaussians,   436 cartesian basis functions
    73 alpha electrons       73 beta electrons
       nuclear repulsion energy      1457.5925534376 Hartrees.
 NAtoms=   22 NActive=   22 NUniq=   22 SFac= 1.00D+00 NAtFMM=   60 NAOKFM=F Big=F
 Integral buffers will be    131072 words long.
 Raffenetti 2 integral format.
 Two-electron integral symmetry is turned on.
 One-electron integrals computed using PRISM.
 NBasis=   420 RedAO= T EigKep=  1.19D-06  NBF=   420
 NBsUse=   415 1.00D-06 EigRej=  6.58D-07 NBFU=   415
 ExpMin= 4.38D-02 ExpMax= 1.06D+05 ExpMxC= 3.62D+03 IAcc=3 IRadAn=         5 AccDes= 0.00D+00
 Harris functional with IExCor=  402 and IRadAn=       5 diagonalized for initial guess.
 HarFok:  IExCor=  402 AccDes= 0.00D+00 IRadAn=         5 IDoV= 1 UseB2=F ITyADJ=14
 ICtDFT=  3500011 ScaDFX=  1.000000  1.000000  1.000000  1.000000
 FoFCou: FMM=F IPFlag=           0 FMFlag=      100000 FMFlg1=           0
         NFxFlg=           0 DoJE=T BraDBF=F KetDBF=T FulRan=T
         wScrn=  0.000000 ICntrl=       500 IOpCl=  0 I1Cent=   200000004 NGrid=           0
         NMat0=    1 NMatS0=      1 NMatT0=    0 NMatD0=    1 NMtDS0=    0 NMtDT0=    0
 Petite list used in FoFCou.
 Requested convergence on RMS density matrix=1.00D-08 within  32 cycles.
 Requested convergence on MAX density matrix=1.00D-06.
 Requested convergence on             energy=1.00D-06.
 No special actions if energy rises.
 SCF Done:  E(RB3LYP) =  -2301.83801591     A.U. after   16 cycles
            NFock= 16  Conv=0.78D-08     -V/T= 2.0027
 QCSCF skips out because SCF is already converged.

 **********************************************************************

            Population analysis using the SCF Density.

 **********************************************************************

 Orbital symmetries:
       Occupied  (A) (A) (A) (A) (A) (A) (A) (A) (A) (A) (A) (A)
                 (A) (A) (A) (A) (A) (A) (A) (A) (A) (A) (A) (A)
                 (A) (A) (A) (A) (A) (A) (A) (A) (A) (A) (A) (A)
                 (A) (A) (A) (A) (A) (A) (A) (A) (A) (A) (A) (A)
                 (A) (A) (A) (A) (A) (A) (A) (A) (A) (A) (A) (A)
                 (A) (A) (A) (A) (A) (A) (A) (A) (A) (A) (A) (A)
                 (A)
       Virtual   (A) (A) (A) (A) (A) (A) (A) (A) (A) (A) (A) (A)
                 (A) (A) (A) (A) (A) (A) (A) (A) (A) (A) (A) (A)
                 (A) (A) (A) (A) (A) (A) (A) (A) (A) (A) (A) (A)
                 (A) (A) (A) (A) (A) (A) (A) (A) (A) (A) (A) (A)
                 (A) (A) (A) (A) (A) (A) (A) (A) (A) (A) (A) (A)
                 (A) (A) (A) (A) (A) (A) (A) (A) (A) (A) (A) (A)
                 (A) (A) (A) (A) (A) (A) (A) (A) (A) (A) (A) (A)
                 (A) (A) (A) (A) (A) (A) (A) (A) (A) (A) (A) (A)
                 (A) (A) (A) (A) (A) (A) (A) (A) (A) (A) (A) (A)
                 (A) (A) (A) (A) (A) (A) (A) (A) (A) (A) (A) (A)
                 (A) (A) (A) (A) (A) (A) (A) (A) (A) (A) (A) (A)
                 (A) (A) (A) (A) (A) (A) (A) (A) (A) (A) (A) (A)
                 (A) (A) (A) (A) (A) (A) (A) (A) (A) (A) (A) (A)
                 (A) (A) (A) (A) (A) (A) (A) (A) (A) (A) (A) (A)
                 (A) (A) (A) (A) (A) (A) (A) (A) (A) (A) (A) (A)
                 (A) (A) (A) (A) (A) (A) (A) (A) (A) (A) (A) (A)
                 (A) (A) (A) (A) (A) (A) (A) (A) (A) (A) (A) (A)
                 (A) (A) (A) (A) (A) (A) (A) (A) (A) (A) (A) (A)
                 (A) (A) (A) (A) (A) (A) (A) (A) (A) (A) (A) (A)
                 (A) (A) (A) (A) (A) (A) (A) (A) (A) (A) (A) (A)
                 (A) (A) (A) (A) (A) (A) (A) (A) (A) (A) (A) (A)
                 (A) (A) (A) (A) (A) (A) (A) (A) (A) (A) (A) (A)
                 (A) (A) (A) (A) (A) (A) (A) (A) (A) (A) (A) (A)
                 (A) (A) (A) (A) (A) (A) (A) (A) (A) (A) (A) (A)
                 (A) (A) (A) (A) (A) (A) (A) (A) (A) (A) (A) (A)
                 (A) (A) (A) (A) (A) (A) (A) (A) (A) (A) (A) (A)
                 (A) (A) (A) (A) (A) (A) (A) (A) (A) (A) (A) (A)
                 (A) (A) (A) (A) (A) (A) (A) (A) (A) (A) (A) (A)
                 (A) (A) (A) (A) (A) (A)
 The electronic state is 1-A.
 Alpha  occ. eigenvalues -- -101.57660-101.56934-101.56629-101.56497 -10.26715
 Alpha  occ. eigenvalues --  -10.26575 -10.26572 -10.26216 -10.22845 -10.22393
 Alpha  occ. eigenvalues --  -10.21163 -10.21008 -10.20830 -10.20661 -10.20516
 Alpha  occ. eigenvalues --  -10.18585  -9.49453  -9.48363  -9.48063  -9.47934
 Alpha  occ. eigenvalues --   -7.25845  -7.24904  -7.24896  -7.24856  -7.24548
 Alpha  occ. eigenvalues --   -7.24431  -7.23841  -7.23785  -7.23547  -7.23488
 Alpha  occ. eigenvalues --   -7.23422  -7.23338  -0.93937  -0.92621  -0.88700
 Alpha  occ. eigenvalues --   -0.87058  -0.86170  -0.84500  -0.79225  -0.76797
 Alpha  occ. eigenvalues --   -0.75361  -0.74229  -0.65694  -0.64021  -0.62709
 Alpha  occ. eigenvalues --   -0.60967  -0.55105  -0.53690  -0.52288  -0.49972
 Alpha  occ. eigenvalues --   -0.48697  -0.47982  -0.46030  -0.45864  -0.45417
 Alpha  occ. eigenvalues --   -0.44394  -0.42431  -0.42122  -0.41060  -0.38807
 Alpha  occ. eigenvalues --   -0.38560  -0.37627  -0.36504  -0.35605  -0.34520
 Alpha  occ. eigenvalues --   -0.33921  -0.33364  -0.30981  -0.29567  -0.29133
 Alpha  occ. eigenvalues --   -0.27806  -0.26412  -0.25121
 Alpha virt. eigenvalues --   -0.07176  -0.05401  -0.03922  -0.03317  -0.01667
 Alpha virt. eigenvalues --   -0.00947  -0.00637   0.00715   0.01485   0.01696
 Alpha virt. eigenvalues --    0.02720   0.03266   0.03316   0.04115   0.04244
 Alpha virt. eigenvalues --    0.05713   0.05806   0.06376   0.06386   0.06535
 Alpha virt. eigenvalues --    0.07897   0.08562   0.08693   0.08800   0.08913
 Alpha virt. eigenvalues --    0.09190   0.10071   0.10451   0.10971   0.11306
 Alpha virt. eigenvalues --    0.11757   0.11889   0.12510   0.13038   0.13682
 Alpha virt. eigenvalues --    0.13786   0.14110   0.14440   0.15082   0.15174
 Alpha virt. eigenvalues --    0.15599   0.16078   0.16281   0.16897   0.17006
 Alpha virt. eigenvalues --    0.17676   0.18429   0.18483   0.18858   0.19122
 Alpha virt. eigenvalues --    0.19436   0.19566   0.19707   0.20287   0.20567
 Alpha virt. eigenvalues --    0.20828   0.21490   0.21518   0.22280   0.22614
 Alpha virt. eigenvalues --    0.23127   0.24444   0.24716   0.24926   0.24975
 Alpha virt. eigenvalues --    0.25908   0.26854   0.26942   0.27242   0.27654
 Alpha virt. eigenvalues --    0.28098   0.28545   0.29418   0.29712   0.30423
 Alpha virt. eigenvalues --    0.31949   0.32369   0.33032   0.33766   0.33967
 Alpha virt. eigenvalues --    0.34958   0.35416   0.37139   0.38115   0.40536
 Alpha virt. eigenvalues --    0.41938   0.43147   0.43786   0.44351   0.45146
 Alpha virt. eigenvalues --    0.45862   0.46272   0.46675   0.47036   0.47861
 Alpha virt. eigenvalues --    0.49129   0.49347   0.49574   0.50769   0.51284
 Alpha virt. eigenvalues --    0.51378   0.52496   0.52904   0.53128   0.53806
 Alpha virt. eigenvalues --    0.55540   0.56032   0.57122   0.57569   0.58685
 Alpha virt. eigenvalues --    0.59124   0.59137   0.60307   0.61772   0.61787
 Alpha virt. eigenvalues --    0.62311   0.63425   0.63688   0.64234   0.65076
 Alpha virt. eigenvalues --    0.66438   0.66805   0.68067   0.68278   0.69030
 Alpha virt. eigenvalues --    0.69987   0.71294   0.73764   0.76012   0.76207
 Alpha virt. eigenvalues --    0.79335   0.80442   0.81105   0.81967   0.82269
 Alpha virt. eigenvalues --    0.83523   0.83590   0.83781   0.84405   0.85231
 Alpha virt. eigenvalues --    0.85663   0.86000   0.86221   0.86571   0.87378
 Alpha virt. eigenvalues --    0.87702   0.88046   0.88647   0.89173   0.90642
 Alpha virt. eigenvalues --    0.91246   0.91364   0.92596   0.93746   0.94702
 Alpha virt. eigenvalues --    0.94976   0.95494   0.95753   0.96296   0.96968
 Alpha virt. eigenvalues --    0.97339   0.98239   0.98829   0.99531   1.00381
 Alpha virt. eigenvalues --    1.01662   1.02777   1.06043   1.07138   1.07742
 Alpha virt. eigenvalues --    1.08595   1.09126   1.11201   1.11334   1.13349
 Alpha virt. eigenvalues --    1.18716   1.20845   1.22064   1.22855   1.24953
 Alpha virt. eigenvalues --    1.25668   1.26531   1.27281   1.29425   1.29646
 Alpha virt. eigenvalues --    1.30251   1.33496   1.36605   1.37052   1.40663
 Alpha virt. eigenvalues --    1.43990   1.46190   1.48339   1.49027   1.50574
 Alpha virt. eigenvalues --    1.53763   1.53973   1.54377   1.54859   1.59407
 Alpha virt. eigenvalues --    1.59660   1.60120   1.62203   1.64975   1.65330
 Alpha virt. eigenvalues --    1.68707   1.69190   1.72337   1.72854   1.74443
 Alpha virt. eigenvalues --    1.79318   1.80427   1.80849   1.82833   1.84572
 Alpha virt. eigenvalues --    1.85472   1.87356   1.87404   1.89028   1.89273
 Alpha virt. eigenvalues --    1.91932   1.93486   1.93922   1.94597   1.96052
 Alpha virt. eigenvalues --    1.96848   1.98453   1.99596   2.01828   2.03584
 Alpha virt. eigenvalues --    2.05893   2.11283   2.15159   2.16951   2.21723
 Alpha virt. eigenvalues --    2.22717   2.23778   2.25419   2.26066   2.26532
 Alpha virt. eigenvalues --    2.27837   2.28443   2.30050   2.32168   2.33683
 Alpha virt. eigenvalues --    2.33914   2.35004   2.39911   2.41470   2.42726
 Alpha virt. eigenvalues --    2.43883   2.46385   2.48724   2.49836   2.51525
 Alpha virt. eigenvalues --    2.53073   2.56220   2.57307   2.60849   2.60898
 Alpha virt. eigenvalues --    2.62791   2.65767   2.67628   2.69547   2.70134
 Alpha virt. eigenvalues --    2.72075   2.72826   2.73811   2.74845   2.75200
 Alpha virt. eigenvalues --    2.75759   2.78321   2.79429   2.80960   2.82430
 Alpha virt. eigenvalues --    2.83683   2.84964   2.85528   2.90865   2.93209
 Alpha virt. eigenvalues --    2.93877   3.05392   3.06581   3.07675   3.08883
 Alpha virt. eigenvalues --    3.13814   3.14995   3.18017   3.21599   3.22994
 Alpha virt. eigenvalues --    3.23800   3.32394   3.36642   3.39074   3.41952
 Alpha virt. eigenvalues --    3.51137   3.53470   3.58977   3.67769   3.71876
 Alpha virt. eigenvalues --    3.72614   3.85346   4.01182   4.03000   4.07695
 Alpha virt. eigenvalues --    4.13609   4.19228   4.45796   4.79885   4.83594
 Alpha virt. eigenvalues --    9.73831   9.78998   9.81096   9.88206  23.39158
 Alpha virt. eigenvalues --   23.56242  23.84320  23.85047  23.89269  23.92013
 Alpha virt. eigenvalues --   23.95689  24.00885  24.03514  24.04682  24.10555
 Alpha virt. eigenvalues --   24.13523  25.76976  25.81152  25.84385  25.89476
 Alpha virt. eigenvalues --   26.11612  26.12036  26.19764  26.47398  26.62864
 Alpha virt. eigenvalues --   26.65287  26.77598  26.85911 215.72598 215.78482
 Alpha virt. eigenvalues --  215.80834 215.90777
          Condensed to atoms (all electrons):
               1          2          3          4          5          6
     1  C   18.194862  -1.437418  -3.419616   0.610273  -3.642645  -1.299421
     2  C   -1.437418  16.752772   2.423714  -5.196896   0.001432  -0.880882
     3  C   -3.419616   2.423714  16.372884  -3.219622  -2.243119   0.264084
     4  C    0.610273  -5.196896  -3.219622  24.245161  -2.500746  -6.996774
     5  C   -3.642645   0.001432  -2.243119  -2.500746  14.187026   2.057484
     6  C   -1.299421  -0.880882   0.264084  -6.996774   2.057484  15.428169
     7  C    5.164243  -2.052662  -2.103805  -1.441219  -1.702969   0.118613
     8  C   -1.208610   4.923336  -0.078819   0.396648  -1.977117  -3.954912
     9  C   -0.720942  -2.612041  -0.015427  -0.233278   0.114291   0.946773
    10  C   -0.672784   0.457695  -0.047649   0.072149  -0.080679  -0.248217
    11  C   -4.343352  -2.224432  -0.107638   0.106993   1.879468   0.213835
    12  C   -0.048137  -4.185467  -1.533413   0.503383   0.691810   1.916010
    13  H    0.136118   0.169282  -0.156765   0.013346   0.001673   0.015678
    14  H   -0.206583  -0.053616   0.005707   0.139951   0.108251   0.205152
    15  H    0.018721   0.105688   0.009678  -0.003642  -0.001552  -0.009153
    16  H    0.001867   0.015482   0.002255   0.000342  -0.000384  -0.001883
    17  H    0.001912   0.001615   0.000111   0.000035   0.000081   0.000498
    18  H    0.005697   0.001170  -0.000325   0.000124  -0.000953   0.002533
    19  Cl   0.878648   0.395940   0.100170  -0.211203  -0.931647  -0.865622
    20  Cl  -0.670116   0.066431   0.210063   0.052210  -0.613857   0.513815
    21  Cl   0.051427  -0.267811  -0.756478  -0.359903   0.782766  -0.155235
    22  Cl  -0.871183   0.420758   0.159431  -0.183908  -0.207934   0.189160
               7          8          9         10         11         12
     1  C    5.164243  -1.208610  -0.720942  -0.672784  -4.343352  -0.048137
     2  C   -2.052662   4.923336  -2.612041   0.457695  -2.224432  -4.185467
     3  C   -2.103805  -0.078819  -0.015427  -0.047649  -0.107638  -1.533413
     4  C   -1.441219   0.396648  -0.233278   0.072149   0.106993   0.503383
     5  C   -1.702969  -1.977117   0.114291  -0.080679   1.879468   0.691810
     6  C    0.118613  -3.954912   0.946773  -0.248217   0.213835   1.916010
     7  C   12.365952  -2.939777   0.148375  -1.506198   0.081578  -0.314580
     8  C   -2.939777  19.189717  -5.938866   1.993560  -3.699395  -1.460270
     9  C    0.148375  -5.938866  12.475922  -0.584576   2.306388   0.221223
    10  C   -1.506198   1.993560  -0.584576   7.934644   0.222419  -1.597671
    11  C    0.081578  -3.699395   2.306388   0.222419  26.417078 -14.147290
    12  C   -0.314580  -1.460270   0.221223  -1.597671 -14.147290  26.795204
    13  H    0.082130  -0.021548   0.038732  -0.004640   0.007019   0.059672
    14  H   -0.072292  -0.009933  -0.007715   0.020696   0.248545   0.053891
    15  H    0.035943   0.414303  -0.171294  -0.001145  -0.007340  -0.066592
    16  H    0.018773  -0.004909   0.330894   0.026945  -0.047355   0.007494
    17  H    0.020676  -0.004831  -0.027503   0.384674  -0.029592   0.001185
    18  H    0.059174   0.005071  -0.035552  -0.045015   0.372473   0.002573
    19  Cl   0.321659   0.702144   0.065096  -0.057280  -1.085494  -0.782466
    20  Cl  -0.202239  -0.124699  -0.002566  -0.003298   0.031171   0.078780
    21  Cl  -0.031628  -0.003155  -0.008504   0.000687  -0.013724  -0.054218
    22  Cl  -0.190588  -0.052892   0.019396  -0.003439   0.000162  -0.097398
              13         14         15         16         17         18
     1  C    0.136118  -0.206583   0.018721   0.001867   0.001912   0.005697
     2  C    0.169282  -0.053616   0.105688   0.015482   0.001615   0.001170
     3  C   -0.156765   0.005707   0.009678   0.002255   0.000111  -0.000325
     4  C    0.013346   0.139951  -0.003642   0.000342   0.000035   0.000124
     5  C    0.001673   0.108251  -0.001552  -0.000384   0.000081  -0.000953
     6  C    0.015678   0.205152  -0.009153  -0.001883   0.000498   0.002533
     7  C    0.082130  -0.072292   0.035943   0.018773   0.020676   0.059174
     8  C   -0.021548  -0.009933   0.414303  -0.004909  -0.004831   0.005071
     9  C    0.038732  -0.007715  -0.171294   0.330894  -0.027503  -0.035552
    10  C   -0.004640   0.020696  -0.001145   0.026945   0.384674  -0.045015
    11  C    0.007019   0.248545  -0.007340  -0.047355  -0.029592   0.372473
    12  C    0.059672   0.053891  -0.066592   0.007494   0.001185   0.002573
    13  H    0.541288  -0.000189   0.002717  -0.000003  -0.000002   0.000001
    14  H   -0.000189   0.666433  -0.000087  -0.000000  -0.000003   0.000014
    15  H    0.002717  -0.000087   0.551906  -0.006859  -0.000271   0.000077
    16  H   -0.000003  -0.000000  -0.006859   0.529548  -0.007273  -0.000228
    17  H   -0.000002  -0.000003  -0.000271  -0.007273   0.525822  -0.007280
    18  H    0.000001   0.000014   0.000077  -0.000228  -0.007280   0.509783
    19  Cl  -0.000468  -0.222884  -0.000518   0.000537   0.002316  -0.018544
    20  Cl   0.001108  -0.029664   0.000035  -0.000001   0.000001  -0.000014
    21  Cl  -0.000942   0.000402   0.000040  -0.000000   0.000000   0.000001
    22  Cl  -0.022557   0.001152   0.000322   0.000008   0.000001  -0.000001
              19         20         21         22
     1  C    0.878648  -0.670116   0.051427  -0.871183
     2  C    0.395940   0.066431  -0.267811   0.420758
     3  C    0.100170   0.210063  -0.756478   0.159431
     4  C   -0.211203   0.052210  -0.359903  -0.183908
     5  C   -0.931647  -0.613857   0.782766  -0.207934
     6  C   -0.865622   0.513815  -0.155235   0.189160
     7  C    0.321659  -0.202239  -0.031628  -0.190588
     8  C    0.702144  -0.124699  -0.003155  -0.052892
     9  C    0.065096  -0.002566  -0.008504   0.019396
    10  C   -0.057280  -0.003298   0.000687  -0.003439
    11  C   -1.085494   0.031171  -0.013724   0.000162
    12  C   -0.782466   0.078780  -0.054218  -0.097398
    13  H   -0.000468   0.001108  -0.000942  -0.022557
    14  H   -0.222884  -0.029664   0.000402   0.001152
    15  H   -0.000518   0.000035   0.000040   0.000322
    16  H    0.000537  -0.000001  -0.000000   0.000008
    17  H    0.002316   0.000001   0.000000   0.000001
    18  H   -0.018544  -0.000014   0.000001  -0.000001
    19  Cl  18.132701  -0.072462   0.003277   0.002061
    20  Cl  -0.072462  17.545803  -0.283716   0.010541
    21  Cl   0.003277  -0.283716  17.658641  -0.225896
    22  Cl   0.002061   0.010541  -0.225896  17.510013
 Mulliken charges:
               1
     1  C   -0.522961
     2  C   -0.824089
     3  C    0.134579
     4  C    0.206576
     5  C    0.079320
     6  C   -1.459705
     7  C    0.140842
     8  C   -0.145046
     9  C   -0.308825
    10  C   -0.260877
    11  C   -0.181515
    12  C   -0.043723
    13  H    0.138351
    14  H    0.152771
    15  H    0.129023
    16  H    0.134750
    17  H    0.137831
    18  H    0.149221
    19  Cl   0.644042
    20  Cl   0.492676
    21  Cl   0.663970
    22  Cl   0.542789
 Sum of Mulliken charges =  -0.00000
 Mulliken charges with hydrogens summed into heavy atoms:
               1
     1  C   -0.522961
     2  C   -0.685738
     3  C    0.134579
     4  C    0.206576
     5  C    0.079320
     6  C   -1.306934
     7  C    0.140842
     8  C   -0.016024
     9  C   -0.174075
    10  C   -0.123047
    11  C   -0.032294
    12  C   -0.043723
    19  Cl   0.644042
    20  Cl   0.492676
    21  Cl   0.663970
    22  Cl   0.542789
 Electronic spatial extent (au):  <R**2>=           6048.0526
 Charge=             -0.0000 electrons
 Dipole moment (field-independent basis, Debye):
    X=             -4.4726    Y=              1.4936    Z=             -0.0000  Tot=              4.7154
 Quadrupole moment (field-independent basis, Debye-Ang):
   XX=           -111.5323   YY=           -115.9329   ZZ=           -124.2425
   XY=             -4.4230   XZ=              0.0000   YZ=              0.0000
 Traceless Quadrupole moment (field-independent basis, Debye-Ang):
   XX=              5.7036   YY=              1.3030   ZZ=             -7.0066
   XY=             -4.4230   XZ=              0.0000   YZ=              0.0000
 Octapole moment (field-independent basis, Debye-Ang**2):
  XXX=            -69.4145  YYY=              1.9334  ZZZ=             -0.0001  XYY=             -9.2557
  XXY=              9.5200  XXZ=             -0.0002  XZZ=             19.7697  YZZ=             -7.4527
  YYZ=             -0.0000  XYZ=             -0.0000
 Hexadecapole moment (field-independent basis, Debye-Ang**3):
 XXXX=          -5203.3711 YYYY=          -2128.4337 ZZZZ=           -145.4698 XXXY=            -43.3262
 XXXZ=              0.0009 YYYX=            -30.2701 YYYZ=             -0.0000 ZZZX=              0.0001
 ZZZY=             -0.0000 XXYY=          -1269.2574 XXZZ=          -1044.6280 YYZZ=           -411.5486
 XXYZ=              0.0001 YYXZ=             -0.0000 ZZXY=             19.1936
 N-N= 1.457592553438D+03 E-N=-8.359603781083D+03  KE= 2.295671228649D+03
 Calling FoFJK, ICntrl=      2127 FMM=F ISym2X=0 I1Cent= 0 IOpClX= 0 NMat=1 NMatS=1 NMatT=0.
 ***** Axes restored to original set *****
 -------------------------------------------------------------------
 Center     Atomic                   Forces (Hartrees/Bohr)
 Number     Number              X              Y              Z
 -------------------------------------------------------------------
      1        6          -0.011393833   -0.020749288   -0.000143251
      2        6          -0.000263965    0.016897435    0.003260585
      3        6          -0.004768331   -0.007980356    0.000072271
      4        6           0.005061700    0.013876820    0.000938417
      5        6           0.005022647   -0.011073898   -0.003734487
      6        6           0.045868116    0.032231775   -0.009058237
      7        6           0.019395640    0.037428396    0.000639530
      8        6          -0.022993469   -0.011374869    0.005439125
      9        6          -0.004045384    0.015643958    0.004270796
     10        6           0.009474659    0.016667446    0.000008845
     11        6           0.009503190    0.001719589   -0.002807776
     12        6           0.005318963   -0.017154163   -0.004974187
     13        1           0.007034872   -0.002266728   -0.002743440
     14        1           0.037786810    0.027094380   -0.007360834
     15        1           0.006058155   -0.001857103   -0.002344799
     16        1           0.004445294   -0.007925535   -0.002952985
     17        1          -0.005729474   -0.007316477    0.000513463
     18        1          -0.008675903    0.000854830    0.003018807
     19       17          -0.087472305   -0.057562742    0.018007911
     20       17          -0.000448466   -0.007267020   -0.001217033
     21       17          -0.002820898   -0.005982367   -0.000194171
     22       17          -0.006358019   -0.003904084    0.001361450
 -------------------------------------------------------------------
 Cartesian Forces:  Max     0.087472305 RMS     0.018315896

 GradGradGradGradGradGradGradGradGradGradGradGradGradGradGradGradGradGrad
 Berny optimization.
 FormGI is forming the generalized inverse of G from B-inverse, IUseBI=4.
 Internal  Forces:  Max     0.271808946 RMS     0.049525851
 Search for a local minimum.
 Step number   1 out of a maximum of  121
 All quantities printed in internal units (Hartrees-Bohrs-Radians)
 Mixed Optimization -- RFO/linear search
 Second derivative matrix not updated -- first step.
 ITU=  0
     Eigenvalues ---    0.00237   0.01506   0.01506   0.02070   0.02070
     Eigenvalues ---    0.02070   0.02070   0.02070   0.02070   0.02070
     Eigenvalues ---    0.02070   0.02070   0.02070   0.02070   0.02070
     Eigenvalues ---    0.02070   0.02070   0.02070   0.02070   0.16000
     Eigenvalues ---    0.16000   0.16000   0.16000   0.16000   0.16000
     Eigenvalues ---    0.22000   0.22493   0.23478   0.23493   0.24487
     Eigenvalues ---    0.25000   0.25000   0.25000   0.25000   0.25000
     Eigenvalues ---    0.25000   0.25000   0.28519   0.29539   0.29539
     Eigenvalues ---    0.29539   0.29539   0.37230   0.37230   0.37230
     Eigenvalues ---    0.37230   0.37230   0.37230   0.41369   0.41539
     Eigenvalues ---    0.41554   0.41716   0.45389   0.45389   0.45389
     Eigenvalues ---    0.45389   0.45389   0.45389   0.45389   0.45389
 RFO step:  Lambda=-4.07510027D-01 EMin= 2.36824242D-03
 Linear search not attempted -- first point.
 Maximum step size (   0.300) exceeded in Quadratic search.
    -- Step size scaled by   0.383
 Iteration  1 RMS(Cart)=  0.19687879 RMS(Int)=  0.01017269
 Iteration  2 RMS(Cart)=  0.03838767 RMS(Int)=  0.00035484
 Iteration  3 RMS(Cart)=  0.00064052 RMS(Int)=  0.00004522
 Iteration  4 RMS(Cart)=  0.00000024 RMS(Int)=  0.00004521
 Variable       Old X    -DE/DX   Delta X   Delta X   Delta X     New X
                                 (Linear)    (Quad)   (Total)
    R1        2.64826   0.01419   0.00000   0.00648   0.00652   2.65478
    R2        2.64826   0.01320   0.00000   0.00615   0.00619   2.65445
    R3        2.91018   0.06447   0.00000   0.03568   0.03568   2.94586
    R4        2.64826  -0.01567   0.00000  -0.00709  -0.00708   2.64118
    R5        2.02201   0.00588   0.00000   0.00289   0.00289   2.02490
    R6        2.64826  -0.01866   0.00000  -0.00858  -0.00862   2.63964
    R7        3.32592  -0.00655   0.00000  -0.00357  -0.00357   3.32235
    R8        2.64826  -0.01681   0.00000  -0.00764  -0.00768   2.64058
    R9        3.32592  -0.00659   0.00000  -0.00359  -0.00359   3.32233
   R10        2.64826  -0.00577   0.00000  -0.00245  -0.00246   2.64581
   R11        3.32592  -0.00629   0.00000  -0.00343  -0.00343   3.32249
   R12        2.02201  -0.03878   0.00000  -0.01907  -0.01907   2.00294
   R13        2.64826   0.01932   0.00000   0.00925   0.00935   2.65761
   R14        2.64826   0.11807   0.00000   0.05376   0.05384   2.70210
   R15        2.64826  -0.02218   0.00000  -0.01043  -0.01041   2.63786
   R16        2.02201   0.00645   0.00000   0.00317   0.00317   2.02518
   R17        2.64826  -0.03872   0.00000  -0.01844  -0.01852   2.62974
   R18        2.02201   0.00955   0.00000   0.00470   0.00470   2.02670
   R19        2.64826  -0.02976   0.00000  -0.01389  -0.01400   2.63427
   R20        2.02201   0.00921   0.00000   0.00453   0.00453   2.02654
   R21        2.64826   0.00272   0.00000   0.00177   0.00175   2.65001
   R22        2.02201   0.00916   0.00000   0.00451   0.00451   2.02651
   R23        3.32592  -0.00398   0.00000  -0.00217  -0.00217   3.32375
    A1        2.09440  -0.05822   0.00000  -0.03363  -0.03355   2.06085
    A2        2.09440  -0.12853   0.00000  -0.07511  -0.07515   2.01925
    A3        2.09440   0.18675   0.00000   0.10873   0.10869   2.20309
    A4        2.09440   0.03672   0.00000   0.02223   0.02227   2.11666
    A5        2.09440  -0.01305   0.00000  -0.00753  -0.00755   2.08685
    A6        2.09440  -0.02367   0.00000  -0.01470  -0.01472   2.07967
    A7        2.09440   0.00456   0.00000   0.00187   0.00184   2.09623
    A8        2.09440  -0.00864   0.00000  -0.00464  -0.00463   2.08977
    A9        2.09440   0.00408   0.00000   0.00277   0.00279   2.09718
   A10        2.09440  -0.01984   0.00000  -0.01242  -0.01249   2.08190
   A11        2.09440   0.00887   0.00000   0.00560   0.00564   2.10003
   A12        2.09440   0.01096   0.00000   0.00682   0.00686   2.10125
   A13        2.09440   0.01664   0.00000   0.00937   0.00933   2.10373
   A14        2.09440  -0.00189   0.00000  -0.00094  -0.00092   2.09348
   A15        2.09440  -0.01475   0.00000  -0.00844  -0.00842   2.08598
   A16        2.09440   0.02013   0.00000   0.01257   0.01260   2.10700
   A17        2.09440   0.01692   0.00000   0.01194   0.01193   2.10632
   A18        2.09440  -0.03705   0.00000  -0.02451  -0.02453   2.06987
   A19        2.09440  -0.19563   0.00000  -0.11513  -0.11522   1.97917
   A20        2.09440   0.27181   0.00000   0.15743   0.15734   2.25174
   A21        2.09440  -0.07618   0.00000  -0.04230  -0.04212   2.05228
   A22        2.09440   0.05683   0.00000   0.03447   0.03460   2.12899
   A23        2.09440  -0.02637   0.00000  -0.01585  -0.01591   2.07848
   A24        2.09440  -0.03047   0.00000  -0.01862  -0.01868   2.07571
   A25        2.09440   0.00144   0.00000  -0.00197  -0.00203   2.09237
   A26        2.09440  -0.00095   0.00000   0.00083   0.00086   2.09526
   A27        2.09440  -0.00049   0.00000   0.00114   0.00117   2.09556
   A28        2.09440  -0.00604   0.00000  -0.00667  -0.00685   2.08754
   A29        2.09440   0.00437   0.00000   0.00425   0.00434   2.09873
   A30        2.09440   0.00167   0.00000   0.00242   0.00251   2.09691
   A31        2.09440   0.03685   0.00000   0.02201   0.02188   2.11627
   A32        2.09440  -0.01734   0.00000  -0.01027  -0.01021   2.08419
   A33        2.09440  -0.01950   0.00000  -0.01173  -0.01167   2.08273
   A34        2.09440  -0.01291   0.00000  -0.00553  -0.00548   2.08892
   A35        2.09440   0.18302   0.00000   0.10572   0.10569   2.20009
   A36        2.09440  -0.17011   0.00000  -0.10019  -0.10022   1.99418
    D1        0.00000   0.00000   0.00000   0.00000   0.00000   0.00000
    D2        3.14159   0.00000   0.00000   0.00000   0.00000   3.14159
    D3       -3.14159   0.00000   0.00000  -0.00000  -0.00000  -3.14159
    D4       -0.00000  -0.00000   0.00000  -0.00000  -0.00000  -0.00000
    D5       -0.00000  -0.00000   0.00000  -0.00000  -0.00000  -0.00000
    D6        3.14159  -0.00000   0.00000  -0.00000  -0.00000   3.14159
    D7        3.14159   0.00000   0.00000   0.00000   0.00000   3.14159
    D8        0.00000  -0.00000   0.00000  -0.00000  -0.00000  -0.00000
    D9       -0.00000  -0.00000   0.00000  -0.00000  -0.00000  -0.00000
   D10        3.14159  -0.00000   0.00000  -0.00000  -0.00000   3.14159
   D11        3.14159  -0.00000   0.00000  -0.00000  -0.00000   3.14159
   D12       -0.00000  -0.00000   0.00000  -0.00000  -0.00000  -0.00000
   D13        0.00000  -0.00000   0.00000  -0.00000  -0.00000   0.00000
   D14        3.14159  -0.00000   0.00000  -0.00000  -0.00000   3.14159
   D15       -3.14159  -0.00000   0.00000  -0.00000  -0.00000  -3.14159
   D16        0.00000  -0.00000   0.00000  -0.00000  -0.00000   0.00000
   D17       -0.00000   0.00000   0.00000   0.00000   0.00000  -0.00000
   D18        3.14159   0.00000   0.00000   0.00000   0.00000   3.14159
   D19        3.14159  -0.00000   0.00000  -0.00000  -0.00000   3.14159
   D20        0.00000  -0.00000   0.00000  -0.00000  -0.00000   0.00000
   D21        0.00000   0.00000   0.00000   0.00000   0.00000   0.00000
   D22       -3.14159   0.00000   0.00000   0.00000   0.00000  -3.14159
   D23       -3.14159  -0.00000   0.00000  -0.00000  -0.00000  -3.14159
   D24        0.00000   0.00000   0.00000   0.00000   0.00000   0.00000
   D25       -0.00000   0.00000   0.00000   0.00000   0.00000  -0.00000
   D26        3.14159   0.00000   0.00000   0.00000   0.00000   3.14159
   D27        3.14159   0.00000   0.00000  -0.00000  -0.00000   3.14159
   D28       -0.00000   0.00000   0.00000   0.00000   0.00000  -0.00000
   D29        3.14159   0.00000   0.00000   0.00000   0.00000   3.14159
   D30        0.00000   0.00000   0.00000   0.00000   0.00000   0.00000
   D31        0.00000   0.00000   0.00000   0.00000   0.00000   0.00000
   D32       -3.14159  -0.00000   0.00000  -0.00000  -0.00000  -3.14159
   D33       -3.14159   0.00000   0.00000   0.00000   0.00000  -3.14159
   D34        0.00000  -0.00000   0.00000  -0.00000  -0.00000   0.00000
   D35       -0.00000  -0.00000   0.00000  -0.00000  -0.00000  -0.00000
   D36        3.14159  -0.00000   0.00000  -0.00000  -0.00000   3.14159
   D37       -0.00000   0.00000   0.00000  -0.00000  -0.00000  -0.00000
   D38        3.14159  -0.00000   0.00000  -0.00000  -0.00000   3.14159
   D39        3.14159   0.00000   0.00000   0.00000   0.00000   3.14159
   D40       -0.00000   0.00000   0.00000   0.00000   0.00000  -0.00000
   D41       -0.00000  -0.00000   0.00000  -0.00000  -0.00000  -0.00000
   D42       -3.14159  -0.00000   0.00000  -0.00000  -0.00000  -3.14159
   D43        3.14159   0.00000   0.00000  -0.00000   0.00000   3.14159
   D44        0.00000  -0.00000   0.00000  -0.00000  -0.00000   0.00000
   D45        0.00000   0.00000   0.00000   0.00000   0.00000   0.00000
   D46       -3.14159   0.00000   0.00000   0.00000   0.00000  -3.14159
   D47        3.14159   0.00000   0.00000   0.00000   0.00000   3.14159
   D48        0.00000   0.00000   0.00000   0.00000   0.00000   0.00000
   D49        0.00000   0.00000   0.00000   0.00000   0.00000   0.00000
   D50       -3.14159   0.00000   0.00000   0.00000   0.00000  -3.14159
   D51        3.14159   0.00000   0.00000   0.00000   0.00000   3.14159
   D52       -0.00000   0.00000   0.00000   0.00000   0.00000  -0.00000
         Item               Value     Threshold  Converged?
 Maximum Force            0.271809     0.000450     NO 
 RMS     Force            0.049526     0.000300     NO 
 Maximum Displacement     0.987194     0.001800     NO 
 RMS     Displacement     0.230760     0.001200     NO 
 Predicted change in Energy=-1.446225D-01
 GradGradGradGradGradGradGradGradGradGradGradGradGradGradGradGradGradGrad

                          Input orientation:                          
 ---------------------------------------------------------------------
 Center     Atomic      Atomic             Coordinates (Angstroms)
 Number     Number       Type             X           Y           Z
 ---------------------------------------------------------------------
      1          6           0       -1.775520    2.253543    0.745537
      2          6           0       -0.449957    2.156245    0.290550
      3          6           0        0.379990    3.279056    0.227995
      4          6           0       -0.102167    4.529530    0.621695
      5          6           0       -1.418579    4.642237    1.076558
      6          6           0       -2.248603    3.516406    1.138572
      7          6           0       -2.584124    0.920869    0.761647
      8          6           0       -1.844446   -0.186677    0.309948
      9          6           0       -2.394228   -1.468359    0.250366
     10          6           0       -3.712217   -1.676513    0.645494
     11          6           0       -4.473571   -0.600233    1.098464
     12          6           0       -3.937087    0.693716    1.164730
     13          1           0       -0.064409    1.204392   -0.015236
     14          1           0       -3.241802    3.637054    1.488444
     15          1           0       -0.827990   -0.043767    0.001912
     16          1           0       -1.801790   -2.291128   -0.099341
     17          1           0       -4.140490   -2.658722    0.602126
     18          1           0       -5.488900   -0.764141    1.402191
     19         17           0       -5.057428    1.910751    1.762408
     20         17           0       -2.043469    6.207753    1.576446
     21         17           0        0.936847    5.945699    0.545357
     22         17           0        2.032528    3.110906   -0.348021
 ---------------------------------------------------------------------
                    Distance matrix (angstroms):
                    1          2          3          4          5
     1  C    0.000000
     2  C    1.404848   0.000000
     3  C    2.442489   1.397651   0.000000
     4  C    2.827644   2.421383   1.396840   0.000000
     5  C    2.437795   2.781402   2.411053   1.397335   0.000000
     6  C    1.404674   2.409213   2.791950   2.429150   1.400100
     7  C    1.558883   2.510529   3.825153   4.382024   3.912319
     8  C    2.479750   2.726585   4.118997   5.037394   4.907899
     9  C    3.805331   4.113340   5.498612   6.431649   6.242906
    10  C    4.382481   5.045628   6.440351   7.179694   6.735963
    11  C    3.943105   4.943721   6.274046   6.756550   6.067697
    12  C    2.698361   3.881142   5.118458   5.451144   4.684173
    13  H    2.146483   1.071530   2.135622   3.385801   3.852865
    14  H    2.148487   3.379666   3.851528   3.377140   2.122306
    15  H    2.593920   2.250839   3.542807   4.671831   4.843789
    16  H    4.622612   4.664611   5.991182   7.066116   7.042808
    17  H    5.453806   6.074622   7.472076   8.244963   7.806273
    18  H    4.829782   5.929195   7.222883   7.592696   6.775136
    19  Cl   3.452890   4.843080   5.813106   5.719602   4.601372
    20  Cl   4.049443   4.539551   4.033453   2.737999   1.758185
    21  Cl   4.585742   4.043280   2.742589   1.758099   2.743943
    22  Cl   4.053661   2.735302   1.758110   2.740395   4.035411
                    6          7          8          9         10
     6  C    0.000000
     7  C    2.644137   0.000000
     8  C    3.816122   1.406348   0.000000
     9  C    5.065373   2.450690   1.395893   0.000000
    10  C    5.417721   2.834163   2.412627   1.391600   0.000000
    11  C    4.679617   2.448920   2.775804   2.407610   1.393994
    12  C    3.289262   1.429890   2.425880   2.809101   2.436833
    13  H    3.383398   2.651960   2.282400   3.555587   4.694964
    14  H    1.059911   2.887635   4.238205   5.321322   5.400542
    15  H    3.998121   2.142831   1.071677   2.131734   3.376214
    16  H    5.954790   3.416178   2.144306   1.072485   2.140622
    17  H    6.480681   3.906559   3.386472   2.142459   1.072396
    18  H    5.375138   3.418666   3.848182   3.376332   2.135793
    19  Cl   3.294966   2.845808   4.102694   4.560405   3.990683
    20  Cl   2.734440   5.376555   6.521685   7.797706   8.112524
    21  Cl   4.049748   6.139457   6.737733   8.133348   8.928715
    22  Cl   4.549996   5.228871   5.132047   6.397179   7.543775
                   11         12         13         14         15
    11  C    0.000000
    12  C    1.402323   0.000000
    13  H    4.892618   4.080532   0.000000
    14  H    4.429892   3.041620   4.274894   0.000000
    15  H    3.847381   3.400369   1.463302   4.645935   0.000000
    16  H    3.381165   3.881580   3.904386   6.303811   2.451361
    17  H    2.143519   3.405399   5.649710   6.421059   4.262734
    18  H    1.072384   2.142395   5.942165   4.942409   4.919735
    19  Cl   2.662095   1.758851   5.346886   2.520254   4.980726
    20  Cl   7.244483   5.844647   5.611038   2.837646   6.560339
    21  Cl   8.510452   7.191814   4.878193   4.866247   6.267670
    22  Cl   7.628512   6.615703   2.853539   5.609633   4.272819
                   16         17         18         19         20
    16  H    0.000000
    17  H    2.469150   0.000000
    18  H    4.263926   2.459217   0.000000
    19  Cl   5.632146   4.802824   2.733308   0.000000
    20  Cl   8.665890   9.163033   7.778732   5.251929   0.000000
    21  Cl   8.704085   9.990928   9.329863   7.327575   3.164507
    22  Cl   6.629163   8.502796   8.640087   7.494115   5.468801
                   21         22
    21  Cl   0.000000
    22  Cl   3.167758   0.000000
 Stoichiometry    C12H6Cl4
 Framework group  C1[X(C12H6Cl4)]
 Deg. of freedom    60
 Full point group                 C1      NOp   1
 Largest Abelian subgroup         C1      NOp   1
 Largest concise Abelian subgroup C1      NOp   1
                         Standard orientation:                         
 ---------------------------------------------------------------------
 Center     Atomic      Atomic             Coordinates (Angstroms)
 Number     Number       Type             X           Y           Z
 ---------------------------------------------------------------------
      1          6           0       -0.482142    0.181481    0.000002
      2          6           0        0.316406    1.337301    0.000001
      3          6           0        1.711648    1.255278   -0.000000
      4          6           0        2.340165    0.007829   -0.000001
      5          6           0        1.559293   -1.150957    0.000002
      6          6           0        0.161716   -1.066940    0.000003
      7          6           0       -2.022062    0.423889    0.000003
      8          6           0       -2.373049    1.785735    0.000004
      9          6           0       -3.704117    2.206184    0.000003
     10          6           0       -4.728697    1.264490    0.000001
     11          6           0       -4.415619   -0.093892   -0.000001
     12          6           0       -3.084022   -0.533621   -0.000001
     13          1           0       -0.149823    2.302084   -0.000000
     14          1           0       -0.400497   -1.965454    0.000005
     15          1           0       -1.596204    2.523977    0.000003
     16          1           0       -3.936599    3.253169    0.000005
     17          1           0       -5.753326    1.580985   -0.000001
     18          1           0       -5.207604   -0.816918   -0.000005
     19         17           0       -2.900680   -2.282890   -0.000006
     20         17           0        2.332169   -2.730158    0.000005
     21         17           0        4.094829   -0.102015   -0.000003
     22         17           0        2.671737    2.728091   -0.000002
 ---------------------------------------------------------------------
 Rotational constants (GHZ):           0.5469173           0.2079533           0.1506659
 Standard basis: 6-311+G(d,p) (5D, 7F)
 There are   436 symmetry adapted cartesian basis functions of A   symmetry.
 There are   420 symmetry adapted basis functions of A   symmetry.
   420 basis functions,   692 primitive gaussians,   436 cartesian basis functions
    73 alpha electrons       73 beta electrons
       nuclear repulsion energy      1432.2262612705 Hartrees.
 NAtoms=   22 NActive=   22 NUniq=   22 SFac= 1.00D+00 NAtFMM=   60 NAOKFM=F Big=F
 Integral buffers will be    131072 words long.
 Raffenetti 2 integral format.
 Two-electron integral symmetry is turned on.
 One-electron integrals computed using PRISM.
 NBasis=   420 RedAO= T EigKep=  1.37D-06  NBF=   420
 NBsUse=   415 1.00D-06 EigRej=  6.21D-07 NBFU=   415
 Initial guess from the checkpoint file:  "/scratch/gour/Gau-24096.chk"
 B after Tr=     0.000000   -0.000000    0.000000
         Rot=    0.999928   -0.000000   -0.000000    0.012029 Ang=  -1.38 deg.
 ExpMin= 4.38D-02 ExpMax= 1.06D+05 ExpMxC= 3.62D+03 IAcc=3 IRadAn=         5 AccDes= 0.00D+00
 Harris functional with IExCor=  402 and IRadAn=       5 diagonalized for initial guess.
 HarFok:  IExCor=  402 AccDes= 0.00D+00 IRadAn=         5 IDoV= 1 UseB2=F ITyADJ=14
 ICtDFT=  3500011 ScaDFX=  1.000000  1.000000  1.000000  1.000000
 FoFCou: FMM=F IPFlag=           0 FMFlag=      100000 FMFlg1=           0
         NFxFlg=           0 DoJE=T BraDBF=F KetDBF=T FulRan=T
         wScrn=  0.000000 ICntrl=       500 IOpCl=  0 I1Cent=   200000004 NGrid=           0
         NMat0=    1 NMatS0=      1 NMatT0=    0 NMatD0=    1 NMtDS0=    0 NMtDT0=    0
 Petite list used in FoFCou.
 Requested convergence on RMS density matrix=1.00D-08 within  32 cycles.
 Requested convergence on MAX density matrix=1.00D-06.
 Requested convergence on             energy=1.00D-06.
 No special actions if energy rises.
 SCF Done:  E(RB3LYP) =  -2301.87599653     A.U. after   16 cycles
            NFock= 16  Conv=0.83D-08     -V/T= 2.0028
 QCSCF skips out because SCF is already converged.
 Calling FoFJK, ICntrl=      2127 FMM=F ISym2X=0 I1Cent= 0 IOpClX= 0 NMat=1 NMatS=1 NMatT=0.
 ***** Axes restored to original set *****
 -------------------------------------------------------------------
 Center     Atomic                   Forces (Hartrees/Bohr)
 Number     Number              X              Y              Z
 -------------------------------------------------------------------
      1        6          -0.011280347   -0.018245404    0.000289645
      2        6           0.004626984    0.020136782    0.002257624
      3        6          -0.004380914   -0.007478443    0.000038896
      4        6           0.007561118    0.012982779   -0.000052945
      5        6          -0.002865749   -0.004822281    0.000038488
      6        6           0.012904651   -0.001755554   -0.004581154
      7        6           0.008018305    0.026887041    0.002408104
      8        6          -0.022590426   -0.016949435    0.004259366
      9        6          -0.001918836    0.010823966    0.002664945
     10        6           0.003363897    0.010972248    0.000952471
     11        6           0.010086489    0.001296749   -0.003079372
     12        6           0.014337112   -0.011009960   -0.006791310
     13        1           0.010061269    0.009017834   -0.001621136
     14        1          -0.012239308    0.002294100    0.004463115
     15        1          -0.003097026   -0.010451102   -0.000942633
     16        1           0.004936031   -0.005564406   -0.002671220
     17        1          -0.004181353   -0.006620898    0.000134058
     18        1          -0.006944280    0.000638083    0.002407599
     19       17           0.004764524    0.003824915   -0.000851379
     20       17          -0.000875052   -0.007198746   -0.001063661
     21       17          -0.004356901   -0.006044091    0.000300278
     22       17          -0.005930191   -0.002734177    0.001440221
 -------------------------------------------------------------------
 Cartesian Forces:  Max     0.026887041 RMS     0.008366993

 GradGradGradGradGradGradGradGradGradGradGradGradGradGradGradGradGradGrad
 Berny optimization.
 Using GEDIIS/GDIIS optimizer.
 FormGI is forming the generalized inverse of G from B-inverse, IUseBI=4.
 Internal  Forces:  Max     0.063724552 RMS     0.011531545
 Search for a local minimum.
 Step number   2 out of a maximum of  121
 All quantities printed in internal units (Hartrees-Bohrs-Radians)
 Mixed Optimization -- RFO/linear search
 Update second derivatives using D2CorX and points    1    2
 DE= -3.80D-02 DEPred=-1.45D-01 R= 2.63D-01
 Trust test= 2.63D-01 RLast= 3.00D-01 DXMaxT set to 3.00D-01
 ITU=  0  0
 Use linear search instead of GDIIS.
     Eigenvalues ---    0.00237   0.01478   0.01484   0.02070   0.02070
     Eigenvalues ---    0.02070   0.02070   0.02070   0.02070   0.02070
     Eigenvalues ---    0.02070   0.02070   0.02070   0.02070   0.02070
     Eigenvalues ---    0.02070   0.02070   0.02070   0.02070   0.15965
     Eigenvalues ---    0.16000   0.16000   0.16000   0.16000   0.16034
     Eigenvalues ---    0.22000   0.22524   0.23429   0.23480   0.24313
     Eigenvalues ---    0.24840   0.25000   0.25000   0.25000   0.25000
     Eigenvalues ---    0.25000   0.28455   0.29523   0.29539   0.29539
     Eigenvalues ---    0.29539   0.37089   0.37197   0.37230   0.37230
     Eigenvalues ---    0.37230   0.37230   0.40444   0.41265   0.41464
     Eigenvalues ---    0.41778   0.45042   0.45327   0.45389   0.45389
     Eigenvalues ---    0.45389   0.45389   0.45389   0.45389   2.06626
 RFO step:  Lambda=-1.37527534D-02 EMin= 2.36824242D-03
 Quartic linear search produced a step of -0.32797.
 Iteration  1 RMS(Cart)=  0.15194768 RMS(Int)=  0.00484310
 Iteration  2 RMS(Cart)=  0.00866922 RMS(Int)=  0.00005373
 Iteration  3 RMS(Cart)=  0.00002733 RMS(Int)=  0.00005311
 Iteration  4 RMS(Cart)=  0.00000000 RMS(Int)=  0.00005311
 Variable       Old X    -DE/DX   Delta X   Delta X   Delta X     New X
                                 (Linear)    (Quad)   (Total)
    R1        2.65478   0.00773  -0.00214   0.01705   0.01494   2.66971
    R2        2.65445  -0.00392  -0.00203  -0.00042  -0.00240   2.65205
    R3        2.94586  -0.00682  -0.01170   0.01364   0.00194   2.94780
    R4        2.64118  -0.00938   0.00232  -0.01918  -0.01688   2.62429
    R5        2.02490  -0.00393  -0.00095  -0.00438  -0.00533   2.01957
    R6        2.63964  -0.00052   0.00283  -0.00807  -0.00530   2.63435
    R7        3.32235  -0.00578   0.00117  -0.01548  -0.01431   3.30804
    R8        2.64058  -0.00319   0.00252  -0.01155  -0.00905   2.63153
    R9        3.32233  -0.00746   0.00118  -0.01913  -0.01795   3.30438
   R10        2.64581  -0.00938   0.00081  -0.01606  -0.01522   2.63058
   R11        3.32249  -0.00640   0.00112  -0.01670  -0.01558   3.30691
   R12        2.00294   0.01320   0.00625   0.00678   0.01303   2.01597
   R13        2.65761   0.00930  -0.00307   0.02155   0.01856   2.67617
   R14        2.70210  -0.01795  -0.01766   0.02057   0.00304   2.70514
   R15        2.63786  -0.00533   0.00341  -0.01610  -0.01273   2.62513
   R16        2.02518  -0.00406  -0.00104  -0.00437  -0.00541   2.01977
   R17        2.62974  -0.00425   0.00607  -0.02169  -0.01574   2.61400
   R18        2.02670   0.00787  -0.00154   0.01766   0.01612   2.04283
   R19        2.63427  -0.00907   0.00459  -0.02528  -0.02077   2.61350
   R20        2.02654   0.00773  -0.00149   0.01728   0.01580   2.04233
   R21        2.65001  -0.00747  -0.00057  -0.00983  -0.01036   2.63965
   R22        2.02651   0.00716  -0.00148   0.01627   0.01479   2.04131
   R23        3.32375  -0.00068   0.00071  -0.00325  -0.00253   3.32121
    A1        2.06085  -0.01179   0.01100  -0.05667  -0.04560   2.01525
    A2        2.01925   0.05541   0.02465   0.08179   0.10639   2.12564
    A3        2.20309  -0.04362  -0.03565  -0.02511  -0.06080   2.14229
    A4        2.11666   0.00277  -0.00730   0.02600   0.01869   2.13535
    A5        2.08685   0.01181   0.00248   0.04045   0.04293   2.12978
    A6        2.07967  -0.01457   0.00483  -0.06645  -0.06162   2.01806
    A7        2.09623   0.00585  -0.00060   0.01699   0.01631   2.11254
    A8        2.08977  -0.00850   0.00152  -0.02561  -0.02405   2.06572
    A9        2.09718   0.00265  -0.00091   0.00862   0.00774   2.10493
   A10        2.08190  -0.00867   0.00410  -0.03262  -0.02860   2.05330
   A11        2.10003   0.00422  -0.00185   0.01555   0.01374   2.11377
   A12        2.10125   0.00445  -0.00225   0.01708   0.01486   2.11611
   A13        2.10373   0.00355  -0.00306   0.01461   0.01156   2.11528
   A14        2.09348   0.00415   0.00030   0.01075   0.01105   2.10453
   A15        2.08598  -0.00771   0.00276  -0.02536  -0.02260   2.06338
   A16        2.10700   0.00829  -0.00413   0.03170   0.02765   2.13465
   A17        2.10632  -0.00333  -0.00391  -0.00009  -0.00404   2.10228
   A18        2.06987  -0.00495   0.00804  -0.03161  -0.02361   2.04626
   A19        1.97917   0.06372   0.03779   0.07147   0.10915   2.08832
   A20        2.25174  -0.04726  -0.05160   0.00418  -0.04753   2.20420
   A21        2.05228  -0.01646   0.01381  -0.07565  -0.06162   1.99066
   A22        2.12899   0.00536  -0.01135   0.04348   0.03218   2.16117
   A23        2.07848   0.00761   0.00522   0.01896   0.02416   2.10264
   A24        2.07571  -0.01297   0.00613  -0.06245  -0.05634   2.01937
   A25        2.09237   0.00108   0.00066   0.00393   0.00443   2.09679
   A26        2.09526  -0.00131  -0.00028  -0.00506  -0.00525   2.09000
   A27        2.09556   0.00023  -0.00038   0.00113   0.00083   2.09639
   A28        2.08754  -0.00424   0.00225  -0.01657  -0.01454   2.07301
   A29        2.09873   0.00341  -0.00142   0.01388   0.01256   2.11130
   A30        2.09691   0.00084  -0.00082   0.00269   0.00197   2.09888
   A31        2.11627  -0.00178  -0.00717   0.01022   0.00300   2.11927
   A32        2.08419   0.00270   0.00335   0.00237   0.00574   2.08992
   A33        2.08273  -0.00091   0.00383  -0.01259  -0.00874   2.07399
   A34        2.08892   0.01604   0.00180   0.03459   0.03655   2.12547
   A35        2.20009  -0.01821  -0.03466   0.03805   0.00331   2.20340
   A36        1.99418   0.00217   0.03287  -0.07264  -0.03986   1.95432
    D1        0.00000  -0.00000  -0.00000  -0.00000  -0.00000   0.00000
    D2        3.14159  -0.00000  -0.00000  -0.00000  -0.00000   3.14159
    D3       -3.14159  -0.00000   0.00000  -0.00000  -0.00000  -3.14159
    D4       -0.00000  -0.00000   0.00000   0.00000   0.00000  -0.00000
    D5       -0.00000   0.00000   0.00000   0.00000   0.00000  -0.00000
    D6        3.14159   0.00000   0.00000   0.00000   0.00000   3.14159
    D7        3.14159  -0.00000  -0.00000   0.00000   0.00000   3.14159
    D8       -0.00000  -0.00000   0.00000  -0.00000  -0.00000  -0.00000
    D9       -0.00000  -0.00000   0.00000  -0.00000  -0.00000  -0.00000
   D10        3.14159  -0.00000   0.00000  -0.00000  -0.00000   3.14159
   D11        3.14159  -0.00000   0.00000  -0.00000  -0.00000   3.14159
   D12       -0.00000   0.00000   0.00000   0.00000   0.00000  -0.00000
   D13        0.00000  -0.00000   0.00000  -0.00000  -0.00000   0.00000
   D14        3.14159   0.00000   0.00000   0.00000   0.00000   3.14159
   D15       -3.14159  -0.00000   0.00000  -0.00000  -0.00000  -3.14159
   D16        0.00000  -0.00000   0.00000  -0.00000  -0.00000   0.00000
   D17       -0.00000   0.00000  -0.00000   0.00000   0.00000  -0.00000
   D18        3.14159  -0.00000  -0.00000  -0.00000  -0.00000   3.14159
   D19        3.14159   0.00000   0.00000   0.00000   0.00000   3.14159
   D20        0.00000  -0.00000   0.00000  -0.00000  -0.00000   0.00000
   D21        0.00000  -0.00000  -0.00000  -0.00000  -0.00000   0.00000
   D22       -3.14159  -0.00000  -0.00000  -0.00000  -0.00000  -3.14159
   D23       -3.14159   0.00000   0.00000   0.00000   0.00000  -3.14159
   D24        0.00000  -0.00000  -0.00000   0.00000   0.00000   0.00000
   D25       -0.00000   0.00000  -0.00000   0.00000   0.00000  -0.00000
   D26        3.14159   0.00000  -0.00000   0.00000   0.00000   3.14159
   D27        3.14159   0.00000  -0.00000   0.00000   0.00000   3.14159
   D28       -0.00000   0.00000  -0.00000   0.00000   0.00000  -0.00000
   D29        3.14159  -0.00000  -0.00000   0.00000   0.00000  -3.14159
   D30        0.00000  -0.00000  -0.00000  -0.00000  -0.00000   0.00000
   D31        0.00000  -0.00000  -0.00000  -0.00000  -0.00000   0.00000
   D32       -3.14159  -0.00000   0.00000  -0.00000  -0.00000  -3.14159
   D33       -3.14159  -0.00000  -0.00000  -0.00000  -0.00000   3.14159
   D34        0.00000  -0.00000   0.00000  -0.00000  -0.00000  -0.00000
   D35       -0.00000   0.00000   0.00000   0.00000   0.00000  -0.00000
   D36        3.14159   0.00000   0.00000   0.00000   0.00000   3.14159
   D37       -0.00000  -0.00000   0.00000   0.00000   0.00000  -0.00000
   D38        3.14159  -0.00000   0.00000  -0.00000  -0.00000   3.14159
   D39        3.14159   0.00000  -0.00000   0.00000   0.00000   3.14159
   D40       -0.00000   0.00000  -0.00000   0.00000   0.00000  -0.00000
   D41       -0.00000   0.00000   0.00000   0.00000   0.00000   0.00000
   D42       -3.14159  -0.00000   0.00000  -0.00000  -0.00000  -3.14159
   D43        3.14159   0.00000  -0.00000   0.00000   0.00000  -3.14159
   D44        0.00000  -0.00000   0.00000  -0.00000  -0.00000   0.00000
   D45        0.00000   0.00000  -0.00000  -0.00000  -0.00000   0.00000
   D46       -3.14159  -0.00000  -0.00000  -0.00000  -0.00000  -3.14159
   D47        3.14159   0.00000  -0.00000   0.00000   0.00000   3.14159
   D48        0.00000  -0.00000  -0.00000  -0.00000  -0.00000   0.00000
   D49        0.00000  -0.00000  -0.00000  -0.00000  -0.00000   0.00000
   D50       -3.14159  -0.00000  -0.00000  -0.00000  -0.00000  -3.14159
   D51        3.14159   0.00000  -0.00000   0.00000   0.00000   3.14159
   D52       -0.00000   0.00000  -0.00000   0.00000   0.00000  -0.00000
         Item               Value     Threshold  Converged?
 Maximum Force            0.063725     0.000450     NO 
 RMS     Force            0.011532     0.000300     NO 
 Maximum Displacement     0.566522     0.001800     NO 
 RMS     Displacement     0.154583     0.001200     NO 
 Predicted change in Energy=-9.303962D-03
 GradGradGradGradGradGradGradGradGradGradGradGradGradGradGradGradGradGrad

                          Input orientation:                          
 ---------------------------------------------------------------------
 Center     Atomic      Atomic             Coordinates (Angstroms)
 Number     Number       Type             X           Y           Z
 ---------------------------------------------------------------------
      1          6           0       -1.657041    2.193866    0.695296
      2          6           0       -0.313542    2.234379    0.260283
      3          6           0        0.425032    3.410191    0.237784
      4          6           0       -0.134876    4.618728    0.649222
      5          6           0       -1.458262    4.603472    1.082351
      6          6           0       -2.196341    3.423402    1.103887
      7          6           0       -2.474682    0.865564    0.715206
      8          6           0       -1.864786   -0.339045    0.288033
      9          6           0       -2.510720   -1.568762    0.269888
     10          6           0       -3.826568   -1.668263    0.684717
     11          6           0       -4.477539   -0.525946    1.113723
     12          6           0       -3.834870    0.714091    1.134882
     13          1           0        0.200741    1.359041   -0.073544
     14          1           0       -3.204487    3.484173    1.447438
     15          1           0       -0.849907   -0.343558   -0.047173
[...]

 **********************************************************************

            Population analysis using the SCF Density.

 **********************************************************************

 Orbital symmetries:
       Occupied  (A) (A) (A) (A) (A) (A) (A) (A) (A) (A) (A) (A)
                 (A) (A) (A) (A) (A) (A) (A) (A) (A) (A) (A) (A)
                 (A) (A) (A) (A) (A) (A) (A) (A) (A) (A) (A) (A)
                 (A) (A) (A) (A) (A) (A) (A) (A) (A) (A) (A) (A)
                 (A) (A) (A) (A) (A) (A) (A) (A) (A) (A) (A) (A)
                 (A) (A) (A) (A) (A) (A) (A) (A) (A) (A) (A) (A)
                 (A)
       Virtual   (A) (A) (A) (A) (A) (A) (A) (A) (A) (A) (A) (A)
                 (A) (A) (A) (A) (A) (A) (A) (A) (A) (A) (A) (A)
                 (A) (A) (A) (A) (A) (A) (A) (A) (A) (A) (A) (A)
                 (A) (A) (A) (A) (A) (A) (A) (A) (A) (A) (A) (A)
                 (A) (A) (A) (A) (A) (A) (A) (A) (A) (A) (A) (A)
                 (A) (A) (A) (A) (A) (A) (A) (A) (A) (A) (A) (A)
                 (A) (A) (A) (A) (A) (A) (A) (A) (A) (A) (A) (A)
                 (A) (A) (A) (A) (A) (A) (A) (A) (A) (A) (A) (A)
                 (A) (A) (A) (A) (A) (A) (A) (A) (A) (A) (A) (A)
                 (A) (A) (A) (A) (A) (A) (A) (A) (A) (A) (A) (A)
                 (A) (A) (A) (A) (A) (A) (A) (A) (A) (A) (A) (A)
                 (A) (A) (A) (A) (A) (A) (A) (A) (A) (A) (A) (A)
                 (A) (A) (A) (A) (A) (A) (A) (A) (A) (A) (A) (A)
                 (A) (A) (A) (A) (A) (A) (A) (A) (A) (A) (A) (A)
                 (A) (A) (A) (A) (A) (A) (A) (A) (A) (A) (A) (A)
                 (A) (A) (A) (A) (A) (A) (A) (A) (A) (A) (A) (A)
                 (A) (A) (A) (A) (A) (A) (A) (A) (A) (A) (A) (A)
                 (A) (A) (A) (A) (A) (A) (A) (A) (A) (A) (A) (A)
                 (A) (A) (A) (A) (A) (A) (A) (A) (A) (A) (A) (A)
                 (A) (A) (A) (A) (A) (A) (A) (A) (A) (A) (A) (A)
                 (A) (A) (A) (A) (A) (A) (A) (A) (A) (A) (A) (A)
                 (A) (A) (A) (A) (A) (A) (A) (A) (A) (A) (A) (A)
                 (A) (A) (A) (A) (A) (A) (A) (A) (A) (A) (A) (A)
                 (A) (A) (A) (A) (A) (A) (A) (A) (A) (A) (A) (A)
                 (A) (A) (A) (A) (A) (A) (A) (A) (A) (A) (A) (A)
                 (A) (A) (A) (A) (A) (A) (A) (A) (A) (A) (A) (A)
                 (A) (A) (A) (A) (A) (A) (A) (A) (A) (A) (A) (A)
                 (A) (A) (A) (A) (A) (A) (A) (A) (A) (A) (A) (A)
                 (A) (A) (A) (A) (A) (A) (A) (A) (A)
 The electronic state is 1-A.
 Alpha  occ. eigenvalues -- -101.57219-101.57126-101.57006-101.56531 -10.26994
 Alpha  occ. eigenvalues --  -10.26759 -10.26711 -10.25804 -10.22253 -10.22080
 Alpha  occ. eigenvalues --  -10.21056 -10.20967 -10.20440 -10.20428 -10.20276
 Alpha  occ. eigenvalues --  -10.19984  -9.48680  -9.48584  -9.48465  -9.48007
 Alpha  occ. eigenvalues --   -7.25178  -7.25069  -7.24950  -7.24466  -7.24162
 Alpha  occ. eigenvalues --   -7.24081  -7.24064  -7.24005  -7.23945  -7.23885
 Alpha  occ. eigenvalues --   -7.23495  -7.23445  -0.94552  -0.91538  -0.89441
 Alpha  occ. eigenvalues --   -0.87321  -0.85757  -0.85013  -0.79498  -0.76034
 Alpha  occ. eigenvalues --   -0.75716  -0.74161  -0.65618  -0.63971  -0.62601
 Alpha  occ. eigenvalues --   -0.60545  -0.54993  -0.52794  -0.52397  -0.49482
 Alpha  occ. eigenvalues --   -0.49138  -0.47407  -0.45951  -0.45810  -0.45064
 Alpha  occ. eigenvalues --   -0.44497  -0.42057  -0.41681  -0.40363  -0.38481
 Alpha  occ. eigenvalues --   -0.38415  -0.38106  -0.35997  -0.35180  -0.34693
 Alpha  occ. eigenvalues --   -0.34056  -0.33651  -0.32685  -0.31512  -0.28913
 Alpha  occ. eigenvalues --   -0.27136  -0.26836  -0.25777
 Alpha virt. eigenvalues --   -0.06222  -0.05036  -0.04072  -0.03235  -0.02628
 Alpha virt. eigenvalues --   -0.00869  -0.00212   0.00998   0.01717   0.01853
 Alpha virt. eigenvalues --    0.02465   0.02626   0.03374   0.03752   0.04317
 Alpha virt. eigenvalues --    0.04834   0.05295   0.05990   0.06478   0.07300
 Alpha virt. eigenvalues --    0.07536   0.07715   0.07995   0.08710   0.09097
 Alpha virt. eigenvalues --    0.09202   0.10099   0.10211   0.10596   0.10736
 Alpha virt. eigenvalues --    0.11540   0.12073   0.12251   0.12581   0.12690
 Alpha virt. eigenvalues --    0.12979   0.13431   0.14224   0.14500   0.15157
 Alpha virt. eigenvalues --    0.15181   0.16032   0.16311   0.16557   0.16910
 Alpha virt. eigenvalues --    0.16934   0.17372   0.17697   0.17995   0.18473
 Alpha virt. eigenvalues --    0.18724   0.18938   0.19640   0.19995   0.20510
 Alpha virt. eigenvalues --    0.20578   0.20857   0.21238   0.22239   0.22534
 Alpha virt. eigenvalues --    0.23099   0.23324   0.23652   0.24026   0.24622
 Alpha virt. eigenvalues --    0.24981   0.25392   0.25804   0.26067   0.26781
 Alpha virt. eigenvalues --    0.27005   0.27345   0.27762   0.28141   0.28405
 Alpha virt. eigenvalues --    0.28602   0.28966   0.29431   0.29855   0.30136
 Alpha virt. eigenvalues --    0.30745   0.31698   0.32008   0.33101   0.34223
 Alpha virt. eigenvalues --    0.34306   0.36595   0.42465   0.42568   0.42962
 Alpha virt. eigenvalues --    0.43986   0.44907   0.45376   0.45887   0.46739
 Alpha virt. eigenvalues --    0.46859   0.47771   0.48139   0.48792   0.49136
 Alpha virt. eigenvalues --    0.49370   0.50570   0.50988   0.52089   0.52982
 Alpha virt. eigenvalues --    0.55283   0.55434   0.56076   0.57166   0.57355
 Alpha virt. eigenvalues --    0.57889   0.58073   0.59009   0.60461   0.60968
 Alpha virt. eigenvalues --    0.61719   0.61851   0.62327   0.63314   0.63956
 Alpha virt. eigenvalues --    0.64699   0.65410   0.66813   0.67422   0.68206
 Alpha virt. eigenvalues --    0.68886   0.69054   0.69848   0.70318   0.71029
 Alpha virt. eigenvalues --    0.71645   0.72182   0.73037   0.74723   0.78296
 Alpha virt. eigenvalues --    0.78692   0.81389   0.81787   0.82353   0.82574
 Alpha virt. eigenvalues --    0.83200   0.83362   0.84205   0.85012   0.85161
 Alpha virt. eigenvalues --    0.85275   0.85819   0.86264   0.86458   0.87199
 Alpha virt. eigenvalues --    0.88207   0.88604   0.89268   0.89902   0.90270
 Alpha virt. eigenvalues --    0.91239   0.92102   0.92596   0.94106   0.94274
 Alpha virt. eigenvalues --    0.94547   0.95580   0.96267   0.96856   0.98198
 Alpha virt. eigenvalues --    0.98401   0.99689   1.00785   1.01209   1.02245
 Alpha virt. eigenvalues --    1.03407   1.05182   1.07438   1.07630   1.09767
 Alpha virt. eigenvalues --    1.11789   1.12395   1.14066   1.14610   1.22135
 Alpha virt. eigenvalues --    1.22263   1.23695   1.24100   1.25962   1.27313
 Alpha virt. eigenvalues --    1.28016   1.28803   1.29991   1.31798   1.33788
 Alpha virt. eigenvalues --    1.34612   1.36529   1.40184   1.44784   1.47420
 Alpha virt. eigenvalues --    1.48845   1.50204   1.51291   1.53272   1.54710
 Alpha virt. eigenvalues --    1.55920   1.56327   1.59144   1.59910   1.62172
 Alpha virt. eigenvalues --    1.63843   1.64781   1.65435   1.67326   1.68650
 Alpha virt. eigenvalues --    1.71584   1.72755   1.75510   1.77671   1.79534
 Alpha virt. eigenvalues --    1.81078   1.82538   1.84604   1.86227   1.87413
 Alpha virt. eigenvalues --    1.89621   1.90362   1.90887   1.92341   1.93134
 Alpha virt. eigenvalues --    1.94942   1.95149   1.95728   1.96497   1.97413
 Alpha virt. eigenvalues --    2.00730   2.01752   2.02453   2.07455   2.08522
 Alpha virt. eigenvalues --    2.13655   2.14155   2.21701   2.22611   2.23219
 Alpha virt. eigenvalues --    2.26039   2.26394   2.27707   2.28438   2.30167
 Alpha virt. eigenvalues --    2.30425   2.31321   2.32332   2.34192   2.38150
 Alpha virt. eigenvalues --    2.38752   2.41285   2.42007   2.44030   2.44851
 Alpha virt. eigenvalues --    2.49997   2.50911   2.53243   2.55219   2.55493
 Alpha virt. eigenvalues --    2.56667   2.59678   2.62233   2.65139   2.66971
 Alpha virt. eigenvalues --    2.67867   2.70764   2.71338   2.71531   2.72011
 Alpha virt. eigenvalues --    2.74351   2.74781   2.77315   2.77979   2.78672
 Alpha virt. eigenvalues --    2.79671   2.81129   2.81816   2.83858   2.84074
 Alpha virt. eigenvalues --    2.85024   2.89064   2.91582   2.98997   2.99322
 Alpha virt. eigenvalues --    3.06548   3.08597   3.12656   3.13073   3.14336
 Alpha virt. eigenvalues --    3.16400   3.20930   3.21754   3.22477   3.33099
 Alpha virt. eigenvalues --    3.35733   3.38071   3.42856   3.51328   3.54288
 Alpha virt. eigenvalues --    3.60364   3.68774   3.70819   3.75224   3.85497
 Alpha virt. eigenvalues --    3.99913   4.01853   4.06414   4.08489   4.13078
 Alpha virt. eigenvalues --    4.38235   4.80729   4.82966   9.74399   9.79408
 Alpha virt. eigenvalues --    9.80442   9.81252  23.39407  23.57933  23.83996
 Alpha virt. eigenvalues --   23.87959  23.89847  23.93417  23.96680  24.02506
 Alpha virt. eigenvalues --   24.03922  24.06537  24.12630  24.16455  25.77502
 Alpha virt. eigenvalues --   25.82013  25.88718  25.89687  26.09413  26.10933
 Alpha virt. eigenvalues --   26.16111  26.24898  26.46711  26.63130  26.70717
 Alpha virt. eigenvalues --   26.85354 215.73230 215.78939 215.80193 215.81058
          Condensed to atoms (all electrons):
               1          2          3          4          5          6
     1  C   45.526065   3.809510  -9.613205   0.548079  -9.606432   2.173010
     2  C    3.809510  35.153186  -7.570511   1.335872  -7.184014  -8.914055
     3  C   -9.613205  -7.570511  23.727575  -6.786083   2.221303  -3.737462
     4  C    0.548079   1.335872  -6.786083  26.446380  -8.295049   1.429005
     5  C   -9.606432  -7.184014   2.221303  -8.295049  28.530915 -11.220929
     6  C    2.173010  -8.914055  -3.737462   1.429005 -11.220929  39.260030
     7  C  -20.431482  -9.612786   8.680440  -8.362383  12.647738 -14.615601
     8  C   -4.493755   2.080161  -0.904279  -0.020994   1.076194  -3.615319
     9  C   -0.632568  -0.311085   0.274213  -0.176252   0.241249   0.066039
    10  C   -0.355325   0.076704  -0.085315   0.021925  -0.014789  -0.066202
    11  C    3.344076   0.090791   0.339879   0.036298  -0.618816   1.423929
    12  C   -2.238956  -2.339413   0.570683   0.389264  -1.266955   5.194758
    13  H   -0.029471   0.186106   0.055825  -0.051226   0.039186  -0.035501
    14  H   -0.045196  -0.015154   0.033692  -0.074674   0.068556   0.227270
    15  H    0.094353   0.163216  -0.016858   0.011637  -0.029577  -0.035267
    16  H    0.011964   0.001474  -0.001578   0.000211  -0.000424   0.000263
    17  H    0.010762   0.000167  -0.000155   0.000091  -0.000268  -0.000904
    18  H    0.025358   0.002255  -0.000959   0.000379  -0.001417  -0.000977
    19  Cl  -1.932370  -0.504895   0.091743  -0.278814   0.827785  -0.658870
    20  Cl  -0.552291  -0.073757   0.078844  -0.333844   0.074724  -0.065617
    21  Cl   0.083120   0.745722  -1.085381   0.410251  -1.132928   0.580876
    22  Cl  -0.359311   0.026350  -0.043628  -0.347045  -0.012394   0.115638
               7          8          9         10         11         12
     1  C  -20.431482  -4.493755  -0.632568  -0.355325   3.344076  -2.238956
     2  C   -9.612786   2.080161  -0.311085   0.076704   0.090791  -2.339413
     3  C    8.680440  -0.904279   0.274213  -0.085315   0.339879   0.570683
     4  C   -8.362383  -0.020994  -0.176252   0.021925   0.036298   0.389264
     5  C   12.647738   1.076194   0.241249  -0.014789  -0.618816  -1.266955
     6  C  -14.615601  -3.615319   0.066039  -0.066202   1.423929   5.194758
     7  C   57.824844  -1.469792   0.301293  -3.118128  -6.470441 -12.507199
     8  C   -1.469792  38.251140  -4.167520   3.268573 -12.111718 -12.666274
     9  C    0.301293  -4.167520   9.783357  -0.440273   2.715945  -1.637825
    10  C   -3.118128   3.268573  -0.440273   7.317396  -0.000906  -0.926455
    11  C   -6.470441 -12.111718   2.715945  -0.000906  23.087780  -3.765020
    12  C  -12.507199 -12.666274  -1.637825  -0.926455  -3.765020  37.472732
    13  H    0.146067   0.073636  -0.004838   0.004890  -0.005697  -0.030963
    14  H    0.121065  -0.030662   0.000876   0.000413   0.004272   0.054032
    15  H   -0.090731   0.341691  -0.087878  -0.004872   0.018988  -0.018990
    16  H   -0.023581   0.018686   0.336686   0.027224  -0.033936   0.011893
    17  H    0.025559  -0.052348   0.037983   0.350606   0.024581  -0.045636
    18  H    0.096073   0.033688  -0.043739  -0.044312   0.293841  -0.001191
    19  Cl   1.747635   1.049109  -0.049531   0.141125  -1.559987  -0.171885
    20  Cl   0.138714  -0.020327   0.000273   0.001399   0.023377   0.029643
    21  Cl  -0.456477   0.013024  -0.002324   0.000291  -0.006136  -0.002111
    22  Cl  -0.013514   0.015170   0.034866  -0.005053   0.012636  -0.053668
              13         14         15         16         17         18
     1  C   -0.029471  -0.045196   0.094353   0.011964   0.010762   0.025358
     2  C    0.186106  -0.015154   0.163216   0.001474   0.000167   0.002255
     3  C    0.055825   0.033692  -0.016858  -0.001578  -0.000155  -0.000959
     4  C   -0.051226  -0.074674   0.011637   0.000211   0.000091   0.000379
     5  C    0.039186   0.068556  -0.029577  -0.000424  -0.000268  -0.001417
     6  C   -0.035501   0.227270  -0.035267   0.000263  -0.000904  -0.000977
     7  C    0.146067   0.121065  -0.090731  -0.023581   0.025559   0.096073
     8  C    0.073636  -0.030662   0.341691   0.018686  -0.052348   0.033688
     9  C   -0.004838   0.000876  -0.087878   0.336686   0.037983  -0.043739
    10  C    0.004890   0.000413  -0.004872   0.027224   0.350606  -0.044312
    11  C   -0.005697   0.004272   0.018988  -0.033936   0.024581   0.293841
    12  C   -0.030963   0.054032  -0.018990   0.011893  -0.045636  -0.001191
    13  H    0.505085  -0.000149  -0.000650   0.000013  -0.000002   0.000002
    14  H   -0.000149   0.496812  -0.000037   0.000002   0.000000  -0.000004
    15  H   -0.000650  -0.000037   0.528151  -0.007282  -0.000282   0.000057
    16  H    0.000013   0.000002  -0.007282   0.530446  -0.007512  -0.000201
    17  H   -0.000002   0.000000  -0.000282  -0.007512   0.527864  -0.007733
    18  H    0.000002  -0.000004   0.000057  -0.000201  -0.007733   0.512358
    19  Cl   0.000789   0.000959  -0.003549   0.001070  -0.000053  -0.014444
    20  Cl   0.000885  -0.000363  -0.000123   0.000001  -0.000001  -0.000025
    21  Cl  -0.001591  -0.001718  -0.000050   0.000000   0.000000   0.000001
    22  Cl  -0.004331   0.000805   0.000447  -0.000002  -0.000000  -0.000003
              19         20         21         22
     1  C   -1.932370  -0.552291   0.083120  -0.359311
     2  C   -0.504895  -0.073757   0.745722   0.026350
     3  C    0.091743   0.078844  -1.085381  -0.043628
     4  C   -0.278814  -0.333844   0.410251  -0.347045
     5  C    0.827785   0.074724  -1.132928  -0.012394
     6  C   -0.658870  -0.065617   0.580876   0.115638
     7  C    1.747635   0.138714  -0.456477  -0.013514
     8  C    1.049109  -0.020327   0.013024   0.015170
     9  C   -0.049531   0.000273  -0.002324   0.034866
    10  C    0.141125   0.001399   0.000291  -0.005053
    11  C   -1.559987   0.023377  -0.006136   0.012636
    12  C   -0.171885   0.029643  -0.002111  -0.053668
    13  H    0.000789   0.000885  -0.001591  -0.004331
    14  H    0.000959  -0.000363  -0.001718   0.000805
    15  H   -0.003549  -0.000123  -0.000050   0.000447
    16  H    0.001070   0.000001   0.000000  -0.000002
    17  H   -0.000053  -0.000001   0.000000  -0.000000
    18  H   -0.014444  -0.000025   0.000001  -0.000003
    19  Cl  17.879968   0.015028  -0.000274  -0.004844
    20  Cl   0.015028  17.359290  -0.222142   0.011319
    21  Cl  -0.000274  -0.222142  17.655187  -0.214752
    22  Cl  -0.004844   0.011319  -0.214752  17.340790
 Mulliken charges:
               1
     1  C    0.664065
     2  C   -1.145844
     3  C   -0.228785
     4  C    0.096971
     5  C   -0.343658
     6  C   -1.504116
     7  C    1.442686
     8  C   -0.668085
     9  C   -0.238948
    10  C   -0.148915
    11  C   -0.843738
    12  C   -0.050462
    13  H    0.151934
    14  H    0.159202
    15  H    0.137606
    16  H    0.134581
    17  H    0.137278
    18  H    0.150992
    19  Cl   0.424306
    20  Cl   0.534995
    21  Cl   0.637413
    22  Cl   0.500524
 Sum of Mulliken charges =  -0.00000
 Mulliken charges with hydrogens summed into heavy atoms:
               1
     1  C    0.664065
     2  C   -0.993910
     3  C   -0.228785
     4  C    0.096971
     5  C   -0.343658
     6  C   -1.344915
     7  C    1.442686
     8  C   -0.530480
     9  C   -0.104367
    10  C   -0.011637
    11  C   -0.692747
    12  C   -0.050462
    19  Cl   0.424306
    20  Cl   0.534995
    21  Cl   0.637413
    22  Cl   0.500524
 Electronic spatial extent (au):  <R**2>=           6044.8965
 Charge=              0.0000 electrons
 Dipole moment (field-independent basis, Debye):
    X=             -3.4926    Y=              1.2534    Z=             -1.1918  Tot=              3.8974
 Quadrupole moment (field-independent basis, Debye-Ang):
   XX=           -111.9513   YY=           -119.2579   ZZ=           -121.3538
   XY=             -3.5640   XZ=              3.3162   YZ=             -2.3175
 Traceless Quadrupole moment (field-independent basis, Debye-Ang):
   XX=              5.5697   YY=             -1.7369   ZZ=             -3.8328
   XY=             -3.5640   XZ=              3.3162   YZ=             -2.3175
 Octapole moment (field-independent basis, Debye-Ang**2):
  XXX=            -55.0983  YYY=             -5.0088  ZZZ=              6.5990  XYY=              4.5233
  XXY=              6.9329  XXZ=             -5.9365  XZZ=              9.9472  YZZ=              1.7943
  YYZ=             -3.5562  XYZ=              9.6591
 Hexadecapole moment (field-independent basis, Debye-Ang**3):
 XXXX=          -5186.8117 YYYY=          -1766.2225 ZZZZ=           -600.0238 XXXY=            -30.5617
 XXXZ=             24.8692 YYYX=              5.7049 YYYZ=              4.5215 ZZZX=            -11.7518
 ZZZY=            -11.1147 XXYY=          -1246.1670 XXZZ=          -1064.7145 YYZZ=           -382.3543
 XXYZ=            -44.3447 YYXZ=             18.9852 ZZXY=            -11.1285
 N-N= 1.448447693853D+03 E-N=-8.341337298634D+03  KE= 2.295552340041D+03
 1\1\GINC-LOCALHOST\FOpt\RB3LYP\6-311+G(d,p)\C12H6Cl4\GOUR\16-Mar-2022\
 0\\# opt b3lyp/6-311+g(d,p) scf=xqc\\Title Card Required\\0,1\C,-1.695
 23631,2.1649910565,0.6790784803\C,-0.6356892111,2.3368715028,-0.213448
 1444\C,0.1123285897,3.509591282,-0.2072385487\C,-0.1744133878,4.542433
 8921,0.6939938412\C,-1.2376838292,4.358119253,1.590014744\C,-1.9878284
 503,3.188958576,1.582584516\C,-2.4536323997,0.8840589499,0.6890267835\
 C,-1.758021045,-0.3181175602,0.8915641273\C,-2.4101270257,-1.545802040
 7,0.91500823\C,-3.7898250563,-1.598662831,0.7315255251\C,-4.5059812366
 ,-0.4248996058,0.5199656897\C,-3.840870171,0.798521722,0.4997168177\H,
 -0.394044935,1.5646684006,-0.9318953011\H,-2.7953563797,3.0812075159,2
 .2935327647\H,-0.6866801694,-0.2733143499,1.0510844721\H,-1.8438304479
 ,-2.4544842085,1.0814130421\H,-4.3118637992,-2.5482041153,0.7483805375
 \H,-5.5765189823,-0.449889794,0.3618259372\Cl,-4.8005003794,2.23886741
 21,0.1737907587\Cl,-1.6487802213,5.5951833195,2.7531507449\Cl,0.759153
 3072,6.0063210944,0.7031720326\Cl,1.4179894201,3.6621994085,-1.3584064
 401\\Version=EM64L-G16RevB.01\State=1-A\HF=-2301.897735\RMSD=4.919e-09
 \RMSF=3.431e-05\Dipole=-0.2991666,-1.4990336,0.1204836\Quadrupole=-2.0
 266146,5.9961306,-3.969516,1.1271876,-0.3667234,-0.4714985\PG=C01 [X(C
 12H6Cl4)]\\@


 SUPPORT THE RIGHT TO ARM BEARS!
 (ADD A CLAWS TO THE BILL OF RIGHTS)
 Job cpu time:       0 days 13 hours 17 minutes 18.4 seconds.
 Elapsed time:       0 days  3 hours 19 minutes 54.9 seconds.
 File lengths (MBytes):  RWF=    121 Int=      0 D2E=      0 Chk=     17 Scr=      1
 Normal termination of Gaussian 16 at Wed Mar 16 02:57:00 2022.
