 Entering Gaussian System, Link 0=g16
 Input=2,3prime,4,4prime,5-Pentachlorobiphenyl.gjf
 Output=2,3prime,4,4prime,5-Pentachlorobiphenyl.log
 Initial command:
 /home/apps/g16/l1.exe "./Gau-102715.inp" -scrdir="./"
 Entering Link 1 = /home/apps/g16/l1.exe PID=    102716.
  
 Copyright (c) 1988-2017, Gaussian, Inc.  All Rights Reserved.
  
 This is part of the Gaussian(R) 16 program.  It is based on
 the Gaussian(R) 09 system (copyright 2009, Gaussian, Inc.),
 the Gaussian(R) 03 system (copyright 2003, Gaussian, Inc.),
 the Gaussian(R) 98 system (copyright 1998, Gaussian, Inc.),
 the Gaussian(R) 94 system (copyright 1995, Gaussian, Inc.),
 the Gaussian 92(TM) system (copyright 1992, Gaussian, Inc.),
 the Gaussian 90(TM) system (copyright 1990, Gaussian, Inc.),
 the Gaussian 88(TM) system (copyright 1988, Gaussian, Inc.),
 the Gaussian 86(TM) system (copyright 1986, Carnegie Mellon
 University), and the Gaussian 82(TM) system (copyright 1983,
 Carnegie Mellon University). Gaussian is a federally registered
 trademark of Gaussian, Inc.
  
 This software contains proprietary and confidential information,
 including trade secrets, belonging to Gaussian, Inc.
  
 This software is provided under written license and may be
 used, copied, transmitted, or stored only in accord with that
 written license.
  
 The following legend is applicable only to US Government
 contracts under FAR:
  
                    RESTRICTED RIGHTS LEGEND
  
 Use, reproduction and disclosure by the US Government is
 subject to restrictions as set forth in subparagraphs (a)
 and (c) of the Commercial Computer Software - Restricted
 Rights clause in FAR 52.227-19.
  
 Gaussian, Inc.
 340 Quinnipiac St., Bldg. 40, Wallingford CT 06492
  
  
 ---------------------------------------------------------------
 Warning -- This program may not be used in any manner that
 competes with the business of Gaussian, Inc. or will provide
 assistance to any competitor of Gaussian, Inc.  The licensee
 of this program is prohibited from giving any competitor of
 Gaussian, Inc. access to this program.  By using this program,
 the user acknowledges that Gaussian, Inc. is engaged in the
 business of creating and licensing software in the field of
 computational chemistry and represents and warrants to the
 licensee that it is not a competitor of Gaussian, Inc. and that
 it will not use this program in any manner prohibited above.
 ---------------------------------------------------------------
  

 Cite this work as:
 Gaussian 16, Revision B.01,
 M. J. Frisch, G. W. Trucks, H. B. Schlegel, G. E. Scuseria, 
 M. A. Robb, J. R. Cheeseman, G. Scalmani, V. Barone, 
 G. A. Petersson, H. Nakatsuji, X. Li, M. Caricato, A. V. Marenich, 
 J. Bloino, B. G. Janesko, R. Gomperts, B. Mennucci, H. P. Hratchian, 
 J. V. Ortiz, A. F. Izmaylov, J. L. Sonnenberg, D. Williams-Young, 
 F. Ding, F. Lipparini, F. Egidi, J. Goings, B. Peng, A. Petrone, 
 T. Henderson, D. Ranasinghe, V. G. Zakrzewski, J. Gao, N. Rega, 
 G. Zheng, W. Liang, M. Hada, M. Ehara, K. Toyota, R. Fukuda, 
 J. Hasegawa, M. Ishida, T. Nakajima, Y. Honda, O. Kitao, H. Nakai, 
 T. Vreven, K. Throssell, J. A. Montgomery, Jr., J. E. Peralta, 
 F. Ogliaro, M. J. Bearpark, J. J. Heyd, E. N. Brothers, K. N. Kudin, 
 V. N. Staroverov, T. A. Keith, R. Kobayashi, J. Normand, 
 K. Raghavachari, A. P. Rendell, J. C. Burant, S. S. Iyengar, 
 J. Tomasi, M. Cossi, J. M. Millam, M. Klene, C. Adamo, R. Cammi, 
 J. W. Ochterski, R. L. Martin, K. Morokuma, O. Farkas, 
 J. B. Foresman, and D. J. Fox, Gaussian, Inc., Wallingford CT, 2016.
 
 ******************************************
 Gaussian 16:  EM64L-G16RevB.01 20-Dec-2017
                 1-Apr-2022 
 ******************************************
 %mem=32GB
 %nprocshared=16
 Will use up to   16 processors via shared memory.
 --------------------------------
 # opt b3lyp/6-311+g(d,p) scf=xqc
 --------------------------------
 1/18=20,19=15,26=3,38=1/1,3;
 2/9=110,12=2,17=6,18=5,40=1/2;
 3/5=4,6=6,7=111,11=2,25=1,30=1,71=1,74=-5/1,2,3;
 4//1;
 5/5=2,8=3,13=1,38=5/2,8;
 6/7=2,8=2,9=2,10=2,28=1/1;
 7//1,2,3,16;
 1/18=20,19=15,26=3/3(2);
 2/9=110/2;
 99//99;
 2/9=110/2;
 3/5=4,6=6,7=111,11=2,25=1,30=1,71=1,74=-5/1,2,3;
 4/5=5,16=3,69=1/1;
 5/5=2,8=3,13=1,38=5/2,8;
 7//1,2,3,16;
 1/18=20,19=15,26=3/3(-5);
 2/9=110/2;
 6/7=2,8=2,9=2,10=2,19=2,28=1/1;
 99/9=1/99;
 -------------------
 Title Card Required
 -------------------
 Symbolic Z-matrix:
 Charge =  0 Multiplicity = 1
 C                    -0.81385  -0.35875  -0.00602 
 C                    -1.24327  -1.68333  -0.08032 
 C                    -2.60559  -1.9964   -0.08207 
 C                    -3.55072  -0.98761  -0.02181 
 C                    -3.14524   0.34527   0.03319 
 C                    -1.78613   0.6448    0.03824 
 C                     0.72314   0.00023  -0.0249 
 C                     1.60027  -1.07756   0.0224 
 C                     2.98932  -0.95093   0.02264 
 C                     3.53196   0.3217   -0.01723 
 C                     2.67873   1.41454  -0.04438 
 C                     1.27884   1.30444  -0.04682 
 H                    -0.57441  -2.52681  -0.14319 
 H                    -2.91031  -3.03399  -0.13463 
 H                    -1.50494   1.68236   0.06491 
 H                     1.23746  -2.08915   0.0633 
 H                     3.12605   2.40086  -0.05881 
 Cl                    0.49158   2.84741  -0.03286 
 Cl                   -4.30357   1.65161   0.08861 
 Cl                    5.27486   0.60378  -0.01793 
 Cl                   -5.27208  -1.41941  -0.02848 
 Cl                    3.96693  -2.40643   0.07601 
 

 GradGradGradGradGradGradGradGradGradGradGradGradGradGradGradGradGradGrad
 Berny optimization.
 Initialization pass.
                           ----------------------------
                           !    Initial Parameters    !
                           ! (Angstroms and Degrees)  !
 --------------------------                            --------------------------
 ! Name  Definition              Value          Derivative Info.                !
 --------------------------------------------------------------------------------
 ! R1    R(1,2)                  1.3944         estimate D2E/DX2                !
 ! R2    R(1,6)                  1.398          estimate D2E/DX2                !
 ! R3    R(1,7)                  1.5785         estimate D2E/DX2                !
 ! R4    R(2,3)                  1.3978         estimate D2E/DX2                !
 ! R5    R(2,13)                 1.0783         estimate D2E/DX2                !
 ! R6    R(3,4)                  1.3837         estimate D2E/DX2                !
 ! R7    R(3,14)                 1.0827         estimate D2E/DX2                !
 ! R8    R(4,5)                  1.3943         estimate D2E/DX2                !
 ! R9    R(4,21)                 1.7747         estimate D2E/DX2                !
 ! R10   R(5,6)                  1.3917         estimate D2E/DX2                !
 ! R11   R(5,19)                 1.7468         estimate D2E/DX2                !
 ! R12   R(6,15)                 1.0753         estimate D2E/DX2                !
 ! R13   R(7,8)                  1.3904         estimate D2E/DX2                !
 ! R14   R(7,12)                 1.4178         estimate D2E/DX2                !
 ! R15   R(8,9)                  1.3948         estimate D2E/DX2                !
 ! R16   R(8,16)                 1.0755         estimate D2E/DX2                !
 ! R17   R(9,10)                 1.3841         estimate D2E/DX2                !
 ! R18   R(9,22)                 1.7542         estimate D2E/DX2                !
 ! R19   R(10,11)                1.3867         estimate D2E/DX2                !
 ! R20   R(10,20)                1.7656         estimate D2E/DX2                !
 ! R21   R(11,12)                1.4042         estimate D2E/DX2                !
 ! R22   R(11,17)                1.0831         estimate D2E/DX2                !
 ! R23   R(12,18)                1.7323         estimate D2E/DX2                !
 ! A1    A(2,1,6)              117.995          estimate D2E/DX2                !
 ! A2    A(2,1,7)              121.0144         estimate D2E/DX2                !
 ! A3    A(6,1,7)              120.9531         estimate D2E/DX2                !
 ! A4    A(1,2,3)              120.8604         estimate D2E/DX2                !
 ! A5    A(1,2,13)             123.7189         estimate D2E/DX2                !
 ! A6    A(3,2,13)             115.4202         estimate D2E/DX2                !
 ! A7    A(2,3,4)              120.1563         estimate D2E/DX2                !
 ! A8    A(2,3,14)             119.2749         estimate D2E/DX2                !
 ! A9    A(4,3,14)             120.5684         estimate D2E/DX2                !
 ! A10   A(3,4,5)              120.0025         estimate D2E/DX2                !
 ! A11   A(3,4,21)             119.0108         estimate D2E/DX2                !
 ! A12   A(5,4,21)             120.985          estimate D2E/DX2                !
 ! A13   A(4,5,6)              119.333          estimate D2E/DX2                !
 ! A14   A(4,5,19)             121.5556         estimate D2E/DX2                !
 ! A15   A(6,5,19)             119.1108         estimate D2E/DX2                !
 ! A16   A(1,6,5)              121.6392         estimate D2E/DX2                !
 ! A17   A(1,6,15)             120.7672         estimate D2E/DX2                !
 ! A18   A(5,6,15)             117.5891         estimate D2E/DX2                !
 ! A19   A(1,7,8)              115.9491         estimate D2E/DX2                !
 ! A20   A(1,7,12)             126.2292         estimate D2E/DX2                !
 ! A21   A(8,7,12)             117.7957         estimate D2E/DX2                !
 ! A22   A(7,8,9)              123.9083         estimate D2E/DX2                !
 ! A23   A(7,8,16)             121.1716         estimate D2E/DX2                !
 ! A24   A(9,8,16)             114.9201         estimate D2E/DX2                !
 ! A25   A(8,9,10)             118.2889         estimate D2E/DX2                !
 ! A26   A(8,9,22)             118.6645         estimate D2E/DX2                !
 ! A27   A(10,9,22)            123.0465         estimate D2E/DX2                !
 ! A28   A(9,10,11)            118.9438         estimate D2E/DX2                !
 ! A29   A(9,10,20)            122.272          estimate D2E/DX2                !
 ! A30   A(11,10,20)           118.7811         estimate D2E/DX2                !
 ! A31   A(10,11,12)           123.4786         estimate D2E/DX2                !
 ! A32   A(10,11,17)           117.632          estimate D2E/DX2                !
 ! A33   A(12,11,17)           118.8886         estimate D2E/DX2                !
 ! A34   A(7,12,11)            117.57           estimate D2E/DX2                !
 ! A35   A(7,12,18)            129.8738         estimate D2E/DX2                !
 ! A36   A(11,12,18)           112.5326         estimate D2E/DX2                !
 ! D1    D(6,1,2,3)             -1.3117         estimate D2E/DX2                !
 ! D2    D(6,1,2,13)           178.4499         estimate D2E/DX2                !
 ! D3    D(7,1,2,3)           -179.1039         estimate D2E/DX2                !
 ! D4    D(7,1,2,13)             0.6578         estimate D2E/DX2                !
 ! D5    D(2,1,6,5)              1.1328         estimate D2E/DX2                !
 ! D6    D(2,1,6,15)          -178.0789         estimate D2E/DX2                !
 ! D7    D(7,1,6,5)            178.9264         estimate D2E/DX2                !
 ! D8    D(7,1,6,15)            -0.2853         estimate D2E/DX2                !
 ! D9    D(2,1,7,8)             -6.4797         estimate D2E/DX2                !
 ! D10   D(2,1,7,12)           175.4259         estimate D2E/DX2                !
 ! D11   D(6,1,7,8)            175.7936         estimate D2E/DX2                !
 ! D12   D(6,1,7,12)            -2.3008         estimate D2E/DX2                !
 ! D13   D(1,2,3,4)              0.5872         estimate D2E/DX2                !
 ! D14   D(1,2,3,14)          -179.6341         estimate D2E/DX2                !
 ! D15   D(13,2,3,4)          -179.1933         estimate D2E/DX2                !
 ! D16   D(13,2,3,14)            0.5854         estimate D2E/DX2                !
 ! D17   D(2,3,4,5)              0.364          estimate D2E/DX2                !
 ! D18   D(2,3,4,21)           179.9028         estimate D2E/DX2                !
 ! D19   D(14,3,4,5)          -179.4118         estimate D2E/DX2                !
 ! D20   D(14,3,4,21)            0.127          estimate D2E/DX2                !
 ! D21   D(3,4,5,6)             -0.5453         estimate D2E/DX2                !
 ! D22   D(3,4,5,19)           179.1682         estimate D2E/DX2                !
 ! D23   D(21,4,5,6)           179.9252         estimate D2E/DX2                !
 ! D24   D(21,4,5,19)           -0.3613         estimate D2E/DX2                !
 ! D25   D(4,5,6,1)             -0.2173         estimate D2E/DX2                !
 ! D26   D(4,5,6,15)           179.0184         estimate D2E/DX2                !
 ! D27   D(19,5,6,1)          -179.9379         estimate D2E/DX2                !
 ! D28   D(19,5,6,15)           -0.7022         estimate D2E/DX2                !
 ! D29   D(1,7,8,9)           -179.5873         estimate D2E/DX2                !
 ! D30   D(1,7,8,16)             0.3436         estimate D2E/DX2                !
 ! D31   D(12,7,8,9)            -1.3249         estimate D2E/DX2                !
 ! D32   D(12,7,8,16)          178.6059         estimate D2E/DX2                !
 ! D33   D(1,7,12,11)          179.2245         estimate D2E/DX2                !
 ! D34   D(1,7,12,18)            1.142          estimate D2E/DX2                !
 ! D35   D(8,7,12,11)            1.1615         estimate D2E/DX2                !
 ! D36   D(8,7,12,18)         -176.921          estimate D2E/DX2                !
 ! D37   D(7,8,9,10)             0.4621         estimate D2E/DX2                !
 ! D38   D(7,8,9,22)          -179.639          estimate D2E/DX2                !
 ! D39   D(16,8,9,10)         -179.4726         estimate D2E/DX2                !
 ! D40   D(16,8,9,22)            0.4263         estimate D2E/DX2                !
 ! D41   D(8,9,10,11)            0.5312         estimate D2E/DX2                !
 ! D42   D(8,9,10,20)          179.8839         estimate D2E/DX2                !
 ! D43   D(22,9,10,11)        -179.3629         estimate D2E/DX2                !
 ! D44   D(22,9,10,20)          -0.0103         estimate D2E/DX2                !
 ! D45   D(9,10,11,12)          -0.6441         estimate D2E/DX2                !
 ! D46   D(9,10,11,17)         179.0083         estimate D2E/DX2                !
 ! D47   D(20,10,11,12)        179.9803         estimate D2E/DX2                !
 ! D48   D(20,10,11,17)         -0.3673         estimate D2E/DX2                !
 ! D49   D(10,11,12,7)          -0.2272         estimate D2E/DX2                !
 ! D50   D(10,11,12,18)        178.1798         estimate D2E/DX2                !
 ! D51   D(17,11,12,7)        -179.8754         estimate D2E/DX2                !
 ! D52   D(17,11,12,18)         -1.4685         estimate D2E/DX2                !
 --------------------------------------------------------------------------------
 Trust Radius=3.00D-01 FncErr=1.00D-07 GrdErr=1.00D-06 EigMax=2.50D+02 EigMin=1.00D-04
 Number of steps in this run=    121 maximum allowed number of steps=    132.
 GradGradGradGradGradGradGradGradGradGradGradGradGradGradGradGradGradGrad

                          Input orientation:                          
 ---------------------------------------------------------------------
 Center     Atomic      Atomic             Coordinates (Angstroms)
 Number     Number       Type             X           Y           Z
 ---------------------------------------------------------------------
      1          6           0       -0.813847   -0.358745   -0.006020
      2          6           0       -1.243270   -1.683329   -0.080322
      3          6           0       -2.605591   -1.996401   -0.082072
      4          6           0       -3.550717   -0.987614   -0.021814
      5          6           0       -3.145243    0.345269    0.033185
      6          6           0       -1.786134    0.644802    0.038236
      7          6           0        0.723144    0.000229   -0.024897
      8          6           0        1.600269   -1.077562    0.022401
      9          6           0        2.989324   -0.950926    0.022643
     10          6           0        3.531962    0.321703   -0.017233
     11          6           0        2.678727    1.414544   -0.044378
     12          6           0        1.278843    1.304435   -0.046822
     13          1           0       -0.574408   -2.526811   -0.143193
     14          1           0       -2.910311   -3.033986   -0.134630
     15          1           0       -1.504935    1.682363    0.064906
     16          1           0        1.237457   -2.089150    0.063296
     17          1           0        3.126049    2.400862   -0.058811
     18         17           0        0.491583    2.847412   -0.032857
     19         17           0       -4.303571    1.651609    0.088607
     20         17           0        5.274859    0.603781   -0.017928
     21         17           0       -5.272076   -1.419412   -0.028478
     22         17           0        3.966931   -2.406432    0.076007
 ---------------------------------------------------------------------
                    Distance matrix (angstroms):
                    1          2          3          4          5
     1  C    0.000000
     2  C    1.394435   0.000000
     3  C    2.428590   1.397832   0.000000
     4  C    2.808235   2.410758   1.383671   0.000000
     5  C    2.435689   2.783091   2.405811   1.394278   0.000000
     6  C    1.398001   2.393523   2.768020   2.404608   1.391734
     7  C    1.578468   2.589252   3.882045   4.386540   3.884179
     8  C    2.519020   2.909161   4.306325   5.151961   4.954235
     9  C    3.849105   4.296728   5.692720   6.540295   6.270020
    10  C    4.398772   5.179476   6.561049   7.202685   6.677437
    11  C    3.917154   4.998017   6.289673   6.676589   5.921823
    12  C    2.673422   3.910104   5.097606   5.345911   4.527575
    13  H    2.185557   1.078328   2.100184   3.352950   3.858646
    14  H    3.401267   2.146217   1.082682   2.147204   3.391566
    15  H    2.156097   3.378971   3.842701   3.364747   2.116468
    16  H    2.684577   2.517801   3.846915   4.913984   5.013518
    17  H    4.810509   5.980972   7.224137   7.487479   6.600229
    18  Cl   3.461836   4.851761   5.749559   5.572050   4.414927
    19  Cl   4.028480   4.529436   4.027436   2.746722   1.746803
    20  Cl   6.164328   6.908022   8.298587   8.967906   8.424225
    21  Cl   4.582720   4.037774   2.728723   1.774703   2.764294
    22  Cl   5.201499   5.262462   6.587197   7.650990   7.626055
                    6          7          8          9         10
     6  C    0.000000
     7  C    2.591512   0.000000
     8  C    3.799278   1.390402   0.000000
     9  C    5.035036   2.458155   1.394816   0.000000
    10  C    5.328191   2.827165   2.385571   1.384063   0.000000
    11  C    4.531480   2.413498   2.716270   2.386715   1.386740
    12  C    3.136309   1.417828   2.404582   2.831470   2.458289
    13  H    3.400048   2.843161   2.618581   3.900141   4.999217
    14  H    3.850602   4.735029   4.919104   6.258559   7.264800
    15  H    1.075322   2.793202   4.154670   5.209065   5.218091
    16  H    4.076423   2.153555   1.075460   2.089556   3.329182
    17  H    5.217538   3.396784   3.799215   3.355564   2.118820
    18  Cl   3.169312   2.856595   4.078929   4.546335   3.952639
    19  Cl   2.711768   5.292240   6.504466   7.743633   7.948297
    20  Cl   7.061336   4.591561   4.041182   2.764495   1.765576
    21  Cl   4.051817   6.161011   6.881030   8.274831   8.974558
    22  Cl   6.512236   4.040341   2.714748   1.754155   2.764166
                   11         12         13         14         15
    11  C    0.000000
    12  C    1.404210   0.000000
    13  H    5.111451   4.257026   0.000000
    14  H    7.143872   6.031469   2.390344   0.000000
    15  H    4.193650   2.811536   4.315823   4.925327   0.000000
    16  H    3.790082   3.395623   1.875377   4.258623   4.663156
    17  H    1.083111   2.148131   6.162991   8.122867   4.688023
    18  Cl   2.614736   1.732268   5.480035   6.795151   2.313651
    19  Cl   6.987587   5.594838   5.605317   4.893445   2.798905
    20  Cl   2.719915   4.057080   6.635527   8.957900   6.865552
    21  Cl   8.440784   7.094661   4.827792   2.862875   4.880684
    22  Cl   4.034082   4.583824   4.548219   6.909027   6.830790
                   16         17         18         19         20
    16  H    0.000000
    17  H    4.872566   0.000000
    18  Cl   4.993518   2.672170   0.000000
    19  Cl   6.685575   7.468759   4.943501   0.000000
    20  Cl   4.853771   2.801527   5.283354   9.636162   0.000000
    21  Cl   6.544539   9.226262   7.171162   3.222248  10.739239
    22  Cl   2.747882   4.882144   6.300220   9.212440   3.283425
                   21         22
    21  Cl   0.000000
    22  Cl   9.292167   0.000000
 Stoichiometry    C12H5Cl5
 Framework group  C1[X(C12H5Cl5)]
 Deg. of freedom    60
 Full point group                 C1      NOp   1
 Largest Abelian subgroup         C1      NOp   1
 Largest concise Abelian subgroup C1      NOp   1
                         Standard orientation:                         
 ---------------------------------------------------------------------
 Center     Atomic      Atomic             Coordinates (Angstroms)
 Number     Number       Type             X           Y           Z
 ---------------------------------------------------------------------
      1          6           0       -0.813847   -0.358745   -0.006020
      2          6           0       -1.243270   -1.683329   -0.080322
      3          6           0       -2.605591   -1.996401   -0.082072
      4          6           0       -3.550717   -0.987614   -0.021814
      5          6           0       -3.145243    0.345269    0.033185
      6          6           0       -1.786134    0.644802    0.038236
      7          6           0        0.723144    0.000229   -0.024897
      8          6           0        1.600269   -1.077562    0.022401
      9          6           0        2.989324   -0.950926    0.022643
     10          6           0        3.531962    0.321703   -0.017233
     11          6           0        2.678727    1.414544   -0.044378
     12          6           0        1.278843    1.304435   -0.046822
     13          1           0       -0.574408   -2.526811   -0.143193
     14          1           0       -2.910311   -3.033986   -0.134630
     15          1           0       -1.504935    1.682363    0.064906
     16          1           0        1.237457   -2.089150    0.063296
     17          1           0        3.126049    2.400862   -0.058811
     18         17           0        0.491583    2.847412   -0.032857
     19         17           0       -4.303571    1.651609    0.088607
     20         17           0        5.274859    0.603781   -0.017928
     21         17           0       -5.272076   -1.419412   -0.028478
     22         17           0        3.966931   -2.406432    0.076007
 ---------------------------------------------------------------------
 Rotational constants (GHZ):           0.5835467           0.1266378           0.1040936
 Standard basis: 6-311+G(d,p) (5D, 7F)
 There are   461 symmetry adapted cartesian basis functions of A   symmetry.
 There are   444 symmetry adapted basis functions of A   symmetry.
   444 basis functions,   737 primitive gaussians,   461 cartesian basis functions
    81 alpha electrons       81 beta electrons
       nuclear repulsion energy      1649.5564121383 Hartrees.
 NAtoms=   22 NActive=   22 NUniq=   22 SFac= 1.00D+00 NAtFMM=   60 NAOKFM=F Big=F
 Integral buffers will be    131072 words long.
 Raffenetti 2 integral format.
 Two-electron integral symmetry is turned on.
 One-electron integrals computed using PRISM.
 NBasis=   444 RedAO= T EigKep=  1.04D-06  NBF=   444
 NBsUse=   439 1.00D-06 EigRej=  7.67D-07 NBFU=   439
 ExpMin= 4.38D-02 ExpMax= 1.06D+05 ExpMxC= 3.62D+03 IAcc=3 IRadAn=         5 AccDes= 0.00D+00
 Harris functional with IExCor=  402 and IRadAn=       5 diagonalized for initial guess.
 HarFok:  IExCor=  402 AccDes= 0.00D+00 IRadAn=         5 IDoV= 1 UseB2=F ITyADJ=14
 ICtDFT=  3500011 ScaDFX=  1.000000  1.000000  1.000000  1.000000
 FoFCou: FMM=F IPFlag=           0 FMFlag=      100000 FMFlg1=           0
         NFxFlg=           0 DoJE=T BraDBF=F KetDBF=T FulRan=T
         wScrn=  0.000000 ICntrl=       500 IOpCl=  0 I1Cent=   200000004 NGrid=           0
         NMat0=    1 NMatS0=      1 NMatT0=    0 NMatD0=    1 NMtDS0=    0 NMtDT0=    0
 Petite list used in FoFCou.
 Requested convergence on RMS density matrix=1.00D-08 within  32 cycles.
 Requested convergence on MAX density matrix=1.00D-06.
 Requested convergence on             energy=1.00D-06.
 No special actions if energy rises.
 SCF Done:  E(RB3LYP) =  -2761.50208885     A.U. after   17 cycles
            NFock= 17  Conv=0.24D-08     -V/T= 2.0027
 QCSCF skips out because SCF is already converged.

 **********************************************************************

            Population analysis using the SCF Density.

 **********************************************************************

 Orbital symmetries:
       Occupied  (A) (A) (A) (A) (A) (A) (A) (A) (A) (A) (A) (A)
                 (A) (A) (A) (A) (A) (A) (A) (A) (A) (A) (A) (A)
                 (A) (A) (A) (A) (A) (A) (A) (A) (A) (A) (A) (A)
                 (A) (A) (A) (A) (A) (A) (A) (A) (A) (A) (A) (A)
                 (A) (A) (A) (A) (A) (A) (A) (A) (A) (A) (A) (A)
                 (A) (A) (A) (A) (A) (A) (A) (A) (A) (A) (A) (A)
                 (A) (A) (A) (A) (A) (A) (A) (A) (A)
       Virtual   (A) (A) (A) (A) (A) (A) (A) (A) (A) (A) (A) (A)
                 (A) (A) (A) (A) (A) (A) (A) (A) (A) (A) (A) (A)
                 (A) (A) (A) (A) (A) (A) (A) (A) (A) (A) (A) (A)
                 (A) (A) (A) (A) (A) (A) (A) (A) (A) (A) (A) (A)
                 (A) (A) (A) (A) (A) (A) (A) (A) (A) (A) (A) (A)
                 (A) (A) (A) (A) (A) (A) (A) (A) (A) (A) (A) (A)
                 (A) (A) (A) (A) (A) (A) (A) (A) (A) (A) (A) (A)
                 (A) (A) (A) (A) (A) (A) (A) (A) (A) (A) (A) (A)
                 (A) (A) (A) (A) (A) (A) (A) (A) (A) (A) (A) (A)
                 (A) (A) (A) (A) (A) (A) (A) (A) (A) (A) (A) (A)
                 (A) (A) (A) (A) (A) (A) (A) (A) (A) (A) (A) (A)
                 (A) (A) (A) (A) (A) (A) (A) (A) (A) (A) (A) (A)
                 (A) (A) (A) (A) (A) (A) (A) (A) (A) (A) (A) (A)
                 (A) (A) (A) (A) (A) (A) (A) (A) (A) (A) (A) (A)
                 (A) (A) (A) (A) (A) (A) (A) (A) (A) (A) (A) (A)
                 (A) (A) (A) (A) (A) (A) (A) (A) (A) (A) (A) (A)
                 (A) (A) (A) (A) (A) (A) (A) (A) (A) (A) (A) (A)
                 (A) (A) (A) (A) (A) (A) (A) (A) (A) (A) (A) (A)
                 (A) (A) (A) (A) (A) (A) (A) (A) (A) (A) (A) (A)
                 (A) (A) (A) (A) (A) (A) (A) (A) (A) (A) (A) (A)
                 (A) (A) (A) (A) (A) (A) (A) (A) (A) (A) (A) (A)
                 (A) (A) (A) (A) (A) (A) (A) (A) (A) (A) (A) (A)
                 (A) (A) (A) (A) (A) (A) (A) (A) (A) (A) (A) (A)
                 (A) (A) (A) (A) (A) (A) (A) (A) (A) (A) (A) (A)
                 (A) (A) (A) (A) (A) (A) (A) (A) (A) (A) (A) (A)
                 (A) (A) (A) (A) (A) (A) (A) (A) (A) (A) (A) (A)
                 (A) (A) (A) (A) (A) (A) (A) (A) (A) (A) (A) (A)
                 (A) (A) (A) (A) (A) (A) (A) (A) (A) (A) (A) (A)
                 (A) (A) (A) (A) (A) (A) (A) (A) (A) (A) (A) (A)
                 (A) (A) (A) (A) (A) (A) (A) (A) (A) (A)
 The electronic state is 1-A.
 Alpha  occ. eigenvalues -- -101.58586-101.57916-101.57769-101.57124-101.56951
 Alpha  occ. eigenvalues --  -10.27745 -10.27369 -10.27273 -10.26630 -10.26576
 Alpha  occ. eigenvalues --  -10.24557 -10.23340 -10.22257 -10.22105 -10.21420
 Alpha  occ. eigenvalues --  -10.21194 -10.20950  -9.50109  -9.49346  -9.49178
 Alpha  occ. eigenvalues --   -9.48579  -9.48359  -7.26580  -7.25838  -7.25676
 Alpha  occ. eigenvalues --   -7.25579  -7.25536  -7.25065  -7.24847  -7.24823
 Alpha  occ. eigenvalues --   -7.24772  -7.24655  -7.24603  -7.24059  -7.24000
 Alpha  occ. eigenvalues --   -7.23843  -7.23787  -0.94842  -0.93309  -0.91381
 Alpha  occ. eigenvalues --   -0.88050  -0.87212  -0.86815  -0.84756  -0.79326
 Alpha  occ. eigenvalues --   -0.77388  -0.75868  -0.74271  -0.66607  -0.65200
 Alpha  occ. eigenvalues --   -0.63233  -0.61138  -0.55491  -0.53997  -0.52051
 Alpha  occ. eigenvalues --   -0.50525  -0.49806  -0.48498  -0.46899  -0.46317
 Alpha  occ. eigenvalues --   -0.45723  -0.45400  -0.43599  -0.42642  -0.41743
 Alpha  occ. eigenvalues --   -0.40213  -0.40070  -0.39606  -0.37318  -0.36243
 Alpha  occ. eigenvalues --   -0.36076  -0.35045  -0.34445  -0.33781  -0.33674
 Alpha  occ. eigenvalues --   -0.33055  -0.32143  -0.29857  -0.27990  -0.27356
 Alpha  occ. eigenvalues --   -0.25663
 Alpha virt. eigenvalues --   -0.07786  -0.06430  -0.04473  -0.03475  -0.02440
 Alpha virt. eigenvalues --   -0.01855  -0.00804  -0.00712   0.00421   0.01619
 Alpha virt. eigenvalues --    0.01765   0.02177   0.03014   0.03742   0.03893
 Alpha virt. eigenvalues --    0.04072   0.05232   0.05463   0.05980   0.06146
 Alpha virt. eigenvalues --    0.06456   0.06581   0.07929   0.08112   0.08339
 Alpha virt. eigenvalues --    0.08834   0.09156   0.09810   0.10160   0.10386
 Alpha virt. eigenvalues --    0.10769   0.10930   0.11400   0.11502   0.12070
 Alpha virt. eigenvalues --    0.12343   0.12778   0.12836   0.13457   0.13587
 Alpha virt. eigenvalues --    0.13767   0.14252   0.14796   0.15079   0.15476
 Alpha virt. eigenvalues --    0.16504   0.16731   0.17157   0.17491   0.17743
 Alpha virt. eigenvalues --    0.18161   0.18279   0.18928   0.19323   0.19409
 Alpha virt. eigenvalues --    0.19913   0.20703   0.20794   0.20878   0.21551
 Alpha virt. eigenvalues --    0.21897   0.22339   0.22636   0.23141   0.23298
 Alpha virt. eigenvalues --    0.23596   0.23763   0.24294   0.24684   0.25038
 Alpha virt. eigenvalues --    0.25873   0.26175   0.27193   0.27457   0.27953
 Alpha virt. eigenvalues --    0.28750   0.29120   0.30117   0.30576   0.31122
 Alpha virt. eigenvalues --    0.31600   0.32771   0.33120   0.33976   0.34705
 Alpha virt. eigenvalues --    0.35480   0.36523   0.37897   0.40761   0.41452
 Alpha virt. eigenvalues --    0.42623   0.43112   0.43553   0.43839   0.44480
 Alpha virt. eigenvalues --    0.45053   0.45379   0.46227   0.46612   0.46981
 Alpha virt. eigenvalues --    0.47151   0.47879   0.48137   0.48491   0.49276
 Alpha virt. eigenvalues --    0.50495   0.50844   0.51906   0.52930   0.53188
 Alpha virt. eigenvalues --    0.54033   0.54899   0.55935   0.56523   0.56949
 Alpha virt. eigenvalues --    0.57886   0.58629   0.58986   0.59917   0.60485
 Alpha virt. eigenvalues --    0.61106   0.61903   0.62474   0.64129   0.64613
 Alpha virt. eigenvalues --    0.64864   0.65457   0.66074   0.66363   0.67038
 Alpha virt. eigenvalues --    0.68264   0.68892   0.70539   0.73028   0.75251
 Alpha virt. eigenvalues --    0.75737   0.77234   0.78187   0.80304   0.82041
 Alpha virt. eigenvalues --    0.82605   0.82926   0.83287   0.83690   0.84012
 Alpha virt. eigenvalues --    0.84391   0.84626   0.84879   0.84926   0.85073
 Alpha virt. eigenvalues --    0.85168   0.85646   0.86196   0.86841   0.87524
 Alpha virt. eigenvalues --    0.87921   0.88485   0.89833   0.90769   0.91063
 Alpha virt. eigenvalues --    0.91137   0.91550   0.91963   0.92209   0.92737
 Alpha virt. eigenvalues --    0.93445   0.93909   0.94482   0.95092   0.95831
 Alpha virt. eigenvalues --    0.96599   0.96942   0.97746   0.98382   1.01388
 Alpha virt. eigenvalues --    1.02447   1.03175   1.04081   1.06230   1.06720
 Alpha virt. eigenvalues --    1.08217   1.08729   1.10374   1.11839   1.13200
 Alpha virt. eigenvalues --    1.18067   1.20468   1.21791   1.23612   1.23659
 Alpha virt. eigenvalues --    1.25283   1.26023   1.26203   1.26712   1.27174
 Alpha virt. eigenvalues --    1.27693   1.28350   1.32037   1.33309   1.34916
 Alpha virt. eigenvalues --    1.36414   1.38956   1.41368   1.45367   1.47628
 Alpha virt. eigenvalues --    1.50082   1.52486   1.54130   1.54507   1.55315
 Alpha virt. eigenvalues --    1.56531   1.58883   1.59233   1.61368   1.64339
 Alpha virt. eigenvalues --    1.66194   1.68127   1.68373   1.68878   1.75325
 Alpha virt. eigenvalues --    1.75967   1.77327   1.78012   1.81300   1.82379
 Alpha virt. eigenvalues --    1.82865   1.86791   1.87528   1.87902   1.89677
 Alpha virt. eigenvalues --    1.91387   1.91882   1.93243   1.95638   1.96352
 Alpha virt. eigenvalues --    1.96873   1.98910   1.99657   2.02093   2.05410
 Alpha virt. eigenvalues --    2.06504   2.07664   2.12093   2.15046   2.17077
 Alpha virt. eigenvalues --    2.21113   2.22998   2.23343   2.23799   2.24563
 Alpha virt. eigenvalues --    2.25500   2.26710   2.26916   2.28170   2.29101
 Alpha virt. eigenvalues --    2.30987   2.32905   2.34595   2.38221   2.39150
 Alpha virt. eigenvalues --    2.41903   2.43388   2.44209   2.44508   2.47273
 Alpha virt. eigenvalues --    2.50440   2.51102   2.54862   2.56023   2.57510
 Alpha virt. eigenvalues --    2.59087   2.59947   2.60208   2.62211   2.62857
 Alpha virt. eigenvalues --    2.65332   2.68954   2.71746   2.72345   2.72733
 Alpha virt. eigenvalues --    2.72940   2.74607   2.75285   2.77491   2.77580
 Alpha virt. eigenvalues --    2.80574   2.81794   2.83322   2.85161   2.85847
 Alpha virt. eigenvalues --    2.89483   2.92007   2.97375   2.99916   3.05062
 Alpha virt. eigenvalues --    3.06133   3.11387   3.13767   3.15877   3.16779
 Alpha virt. eigenvalues --    3.19703   3.21331   3.24680   3.33230   3.37215
 Alpha virt. eigenvalues --    3.40099   3.47870   3.50161   3.53293   3.61257
 Alpha virt. eigenvalues --    3.70456   3.76773   3.82435   3.86090   3.90575
 Alpha virt. eigenvalues --    4.07788   4.11798   4.15510   4.40554   4.78577
 Alpha virt. eigenvalues --    4.82734   9.74226   9.75824   9.78384   9.79145
 Alpha virt. eigenvalues --    9.81291  23.36002  23.49725  23.79481  23.84377
 Alpha virt. eigenvalues --   23.87147  23.90122  23.95423  24.01322  24.03839
 Alpha virt. eigenvalues --   24.05730  24.09848  24.13440  25.76622  25.77699
 Alpha virt. eigenvalues --   25.82128  25.85917  25.86555  26.05262  26.08703
 Alpha virt. eigenvalues --   26.17115  26.21107  26.34298  26.49286  26.50393
 Alpha virt. eigenvalues --   26.73159  26.75870  26.80235 215.73271 215.74838
 Alpha virt. eigenvalues --  215.77849 215.78612 215.81412
          Condensed to atoms (all electrons):
               1          2          3          4          5          6
     1  C   21.221986  -1.671818  -2.356614  -5.819452  -3.230705   3.010435
     2  C   -1.671818  25.798366  -2.281933  -0.000010  -4.423170  -9.019157
     3  C   -2.356614  -2.281933  24.002443  -0.361771 -11.645889  -0.264189
     4  C   -5.819452  -0.000010  -0.361771  29.240445  -6.802875  -9.091084
     5  C   -3.230705  -4.423170 -11.645889  -6.802875  30.706404   4.877492
     6  C    3.010435  -9.019157  -0.264189  -9.091084   4.877492  20.699600
     7  C    7.363568   1.825235  -0.844399  -1.502251  -2.793189  -3.740440
     8  C   -3.489202   6.919780  -1.591171   0.925990  -2.750701  -6.920812
     9  C   -2.299816  -0.557696   0.248983   0.136159  -0.648594  -0.341455
    10  C   -0.797988   0.217641  -0.312098   0.080773   0.138823   0.029454
    11  C   -3.286983  -2.097432  -0.190444   0.031232   1.847624   1.573770
    12  C   -1.533282  -8.235026   1.089376  -0.489633   1.311798   5.862667
    13  H    0.043387   0.366229  -0.115281  -0.033088  -0.013008   0.006853
    14  H    0.001433   0.003212   0.165943   0.137053   0.065695  -0.036468
    15  H   -0.013316   0.042090  -0.052072   0.048770  -0.072916   0.206565
    16  H    0.070781   0.073396   0.003961   0.005724   0.006532   0.035640
    17  H    0.026505   0.006146   0.000795  -0.000170  -0.002651  -0.004239
    18  Cl   0.224838   0.180273   0.060798  -0.002877  -0.551637  -0.339050
    19  Cl  -0.737146   0.153851   0.717993   0.287146  -1.165689   0.277483
    20  Cl  -0.031200  -0.034827  -0.004516  -0.001508   0.003141  -0.014490
    21  Cl  -0.107296  -0.188021   0.241603  -1.575798   0.824662   0.181366
    22  Cl  -0.168946  -0.089402   0.030491  -0.006748  -0.013564  -0.030861
               7          8          9         10         11         12
     1  C    7.363568  -3.489202  -2.299816  -0.797988  -3.286983  -1.533282
     2  C    1.825235   6.919780  -0.557696   0.217641  -2.097432  -8.235026
     3  C   -0.844399  -1.591171   0.248983  -0.312098  -0.190444   1.089376
     4  C   -1.502251   0.925990   0.136159   0.080773   0.031232  -0.489633
     5  C   -2.793189  -2.750701  -0.648594   0.138823   1.847624   1.311798
     6  C   -3.740440  -6.920812  -0.341455   0.029454   1.573770   5.862667
     7  C   23.978177   3.363080  -4.484969  -0.779424  -5.788631  -9.295594
     8  C    3.363080  20.690987   3.653599  -6.635851  -2.793670  -5.358898
     9  C   -4.484969   3.653599  26.126420  -7.395402  -5.773195  -2.636292
    10  C   -0.779424  -6.635851  -7.395402  29.218537   2.567622  -8.840825
    11  C   -5.788631  -2.793670  -5.773195   2.567622  18.726275   1.251297
    12  C   -9.295594  -5.358898  -2.636292  -8.840825   1.251297  33.081870
    13  H    0.067172   0.004275  -0.026158  -0.007635   0.006810   0.024053
    14  H    0.001616   0.023762   0.000498   0.000386  -0.000169  -0.006165
    15  H    0.112103   0.039814  -0.001776   0.016560   0.052448  -0.041519
    16  H    0.029246   0.252356  -0.156676   0.077061  -0.025824  -0.040099
    17  H    0.127661  -0.013786   0.010595  -0.005342   0.226437  -0.016709
    18  Cl  -0.188504   0.417113   0.245396  -0.469182   0.006007  -0.590570
    19  Cl  -0.265313  -0.164180  -0.018879   0.000762   0.036433   0.082381
    20  Cl   0.115296  -0.093740   0.531882  -0.733485  -0.078675  -0.435964
    21  Cl  -0.061675  -0.012415   0.005783  -0.001047  -0.009291  -0.055167
    22  Cl  -0.725464   0.577321  -0.774679  -0.486316   0.377564   0.520776
              13         14         15         16         17         18
     1  C    0.043387   0.001433  -0.013316   0.070781   0.026505   0.224838
     2  C    0.366229   0.003212   0.042090   0.073396   0.006146   0.180273
     3  C   -0.115281   0.165943  -0.052072   0.003961   0.000795   0.060798
     4  C   -0.033088   0.137053   0.048770   0.005724  -0.000170  -0.002877
     5  C   -0.013008   0.065695  -0.072916   0.006532  -0.002651  -0.551637
     6  C    0.006853  -0.036468   0.206565   0.035640  -0.004239  -0.339050
     7  C    0.067172   0.001616   0.112103   0.029246   0.127661  -0.188504
     8  C    0.004275   0.023762   0.039814   0.252356  -0.013786   0.417113
     9  C   -0.026158   0.000498  -0.001776  -0.156676   0.010595   0.245396
    10  C   -0.007635   0.000386   0.016560   0.077061  -0.005342  -0.469182
    11  C    0.006810  -0.000169   0.052448  -0.025824   0.226437   0.006007
    12  C    0.024053  -0.006165  -0.041519  -0.040099  -0.016709  -0.590570
    13  H    0.553030  -0.008833  -0.000099   0.002513   0.000001  -0.000210
    14  H   -0.008833   0.512858   0.000075   0.000020   0.000000  -0.000006
    15  H   -0.000099   0.000075   0.551062  -0.000091   0.000036  -0.029154
    16  H    0.002513   0.000020  -0.000091   0.531458   0.000035   0.000186
    17  H    0.000001   0.000000   0.000036   0.000035   0.496291  -0.018009
    18  Cl  -0.000210  -0.000006  -0.029154   0.000186  -0.018009  17.560888
    19  Cl   0.000644  -0.000843  -0.025702   0.000127  -0.000009  -0.025721
    20  Cl   0.000092  -0.000001   0.000196  -0.000736  -0.009057  -0.032038
    21  Cl  -0.001137  -0.012747  -0.000488   0.000030   0.000000   0.001286
    22  Cl  -0.000491   0.000018   0.000037  -0.020587   0.000021   0.002180
              19         20         21         22
     1  C   -0.737146  -0.031200  -0.107296  -0.168946
     2  C    0.153851  -0.034827  -0.188021  -0.089402
     3  C    0.717993  -0.004516   0.241603   0.030491
     4  C    0.287146  -0.001508  -1.575798  -0.006748
     5  C   -1.165689   0.003141   0.824662  -0.013564
     6  C    0.277483  -0.014490   0.181366  -0.030861
     7  C   -0.265313   0.115296  -0.061675  -0.725464
     8  C   -0.164180  -0.093740  -0.012415   0.577321
     9  C   -0.018879   0.531882   0.005783  -0.774679
    10  C    0.000762  -0.733485  -0.001047  -0.486316
    11  C    0.036433  -0.078675  -0.009291   0.377564
    12  C    0.082381  -0.435964  -0.055167   0.520776
    13  H    0.000644   0.000092  -0.001137  -0.000491
    14  H   -0.000843  -0.000001  -0.012747   0.000018
    15  H   -0.025702   0.000196  -0.000488   0.000037
    16  H    0.000127  -0.000736   0.000030  -0.020587
    17  H   -0.000009  -0.009057   0.000000   0.000021
    18  Cl  -0.025721  -0.032038   0.001286   0.002180
    19  Cl  17.507720   0.000015  -0.180929  -0.000159
    20  Cl   0.000015  17.455668  -0.000005  -0.155959
    21  Cl  -0.180929  -0.000005  17.455662   0.000034
    22  Cl  -0.000159  -0.155959   0.000034  17.456571
 Mulliken charges:
               1
     1  C   -0.419171
     2  C   -0.987728
     3  C   -0.542009
     4  C    0.793970
     5  C    0.332416
     6  C   -0.959080
     7  C   -0.513302
     8  C   -1.043649
     9  C    0.156271
    10  C    0.116975
    11  C   -0.659205
    12  C    0.351527
    13  H    0.130881
    14  H    0.152664
    15  H    0.167377
    16  H    0.154949
    17  H    0.175449
    18  Cl   0.547994
    19  Cl   0.520014
    20  Cl   0.519910
    21  Cl   0.495588
    22  Cl   0.508161
 Sum of Mulliken charges =  -0.00000
 Mulliken charges with hydrogens summed into heavy atoms:
               1
     1  C   -0.419171
     2  C   -0.856847
     3  C   -0.389346
     4  C    0.793970
     5  C    0.332416
     6  C   -0.791703
     7  C   -0.513302
     8  C   -0.888700
     9  C    0.156271
    10  C    0.116975
    11  C   -0.483756
    12  C    0.351527
    18  Cl   0.547994
    19  Cl   0.520014
    20  Cl   0.519910
    21  Cl   0.495588
    22  Cl   0.508161
 Electronic spatial extent (au):  <R**2>=           8876.3272
 Charge=             -0.0000 electrons
 Dipole moment (field-independent basis, Debye):
    X=              0.7995    Y=             -0.7814    Z=             -0.0735  Tot=              1.1204
 Quadrupole moment (field-independent basis, Debye-Ang):
   XX=           -148.5853   YY=           -124.9669   ZZ=           -135.7552
   XY=              4.2215   XZ=              0.0804   YZ=              0.3032
 Traceless Quadrupole moment (field-independent basis, Debye-Ang):
   XX=            -12.1495   YY=             11.4689   ZZ=              0.6806
   XY=              4.2215   XZ=              0.0804   YZ=              0.3032
 Octapole moment (field-independent basis, Debye-Ang**2):
  XXX=             21.7204  YYY=             -3.1805  ZZZ=              0.7383  XYY=             -3.4678
  XXY=             15.0065  XXZ=             -0.2754  XZZ=              1.3288  YZZ=              3.9967
  YYZ=             -0.6394  XYZ=             -0.9407
 Hexadecapole moment (field-independent basis, Debye-Ang**3):
 XXXX=          -9579.3786 YYYY=          -2051.8160 ZZZZ=           -159.8085 XXXY=             -1.1278
 XXXZ=             -0.1950 YYYX=            -15.8757 YYYZ=              3.0438 ZZZX=             -0.2826
 ZZZY=             -0.7105 XXYY=          -1868.4003 XXZZ=          -1617.8491 YYZZ=           -402.6018
 XXYZ=              0.7269 YYXZ=              1.8022 ZZXY=            -12.7104
 N-N= 1.649556412138D+03 E-N=-9.835222458978D+03  KE= 2.753990257147D+03
 Calling FoFJK, ICntrl=      2127 FMM=F ISym2X=0 I1Cent= 0 IOpClX= 0 NMat=1 NMatS=1 NMatT=0.
 ***** Axes restored to original set *****
 -------------------------------------------------------------------
 Center     Atomic                   Forces (Hartrees/Bohr)
 Number     Number              X              Y              Z
 -------------------------------------------------------------------
      1        6           0.036076363    0.015805612   -0.004357693
      2        6          -0.011868315   -0.006439336    0.000763092
      3        6           0.010683609   -0.000239672   -0.000007251
      4        6          -0.018092566   -0.000876287    0.000015362
      5        6           0.001845547   -0.001897962    0.000079385
      6        6          -0.003101543    0.001206355    0.000223921
      7        6          -0.048784051   -0.000069183    0.003717070
      8        6           0.015543743   -0.003547363   -0.000965004
      9        6          -0.006653746   -0.007167802   -0.000194557
     10        6           0.010543481    0.004926196    0.000215246
     11        6          -0.001226836    0.007213690   -0.000778566
     12        6           0.027863366   -0.019937901    0.001640973
     13        1           0.003450706    0.001166323   -0.000037717
     14        1          -0.001767621    0.001079504   -0.000009555
     15        1          -0.001418317   -0.000560896    0.000957334
     16        1          -0.003708938   -0.000774727    0.000168630
     17        1          -0.001240639   -0.000272332   -0.000143245
     18       17          -0.009165145    0.005826127   -0.001255716
     19       17           0.001382079   -0.000347826    0.000079349
     20       17          -0.009110312   -0.001825994   -0.000064002
     21       17           0.010460538    0.001588364    0.000033941
     22       17          -0.001711402    0.005145111   -0.000080996
 -------------------------------------------------------------------
 Cartesian Forces:  Max     0.048784051 RMS     0.010083329

 GradGradGradGradGradGradGradGradGradGradGradGradGradGradGradGradGradGrad
 Berny optimization.
 FormGI is forming the generalized inverse of G from B-inverse, IUseBI=4.
 Internal  Forces:  Max     0.029335207 RMS     0.004426895
 Search for a local minimum.
 Step number   1 out of a maximum of  121
 All quantities printed in internal units (Hartrees-Bohrs-Radians)
 Mixed Optimization -- RFO/linear search
 Second derivative matrix not updated -- first step.
 ITU=  0
     Eigenvalues ---    0.00230   0.01452   0.01536   0.01923   0.02002
     Eigenvalues ---    0.02135   0.02141   0.02142   0.02157   0.02162
     Eigenvalues ---    0.02171   0.02181   0.02187   0.02206   0.02220
     Eigenvalues ---    0.02234   0.02244   0.02250   0.02283   0.15999
     Eigenvalues ---    0.16000   0.16000   0.16000   0.16000   0.22374
     Eigenvalues ---    0.22999   0.23475   0.23934   0.24604   0.24980
     Eigenvalues ---    0.24982   0.24990   0.24998   0.24998   0.24999
     Eigenvalues ---    0.25000   0.25000   0.25366   0.28215   0.29028
     Eigenvalues ---    0.30088   0.30799   0.32271   0.35621   0.35672
     Eigenvalues ---    0.36197   0.36548   0.36566   0.41051   0.42012
     Eigenvalues ---    0.42232   0.42796   0.45326   0.46013   0.46092
     Eigenvalues ---    0.46568   0.46680   0.47535   0.47870   0.47903
 RFO step:  Lambda=-8.59506102D-03 EMin= 2.30000000D-03
 Linear search not attempted -- first point.
 Iteration  1 RMS(Cart)=  0.06422851 RMS(Int)=  0.00143952
 Iteration  2 RMS(Cart)=  0.00230688 RMS(Int)=  0.00028003
 Iteration  3 RMS(Cart)=  0.00000386 RMS(Int)=  0.00028002
 Iteration  4 RMS(Cart)=  0.00000000 RMS(Int)=  0.00028002
 Variable       Old X    -DE/DX   Delta X   Delta X   Delta X     New X
                                 (Linear)    (Quad)   (Total)
    R1        2.63510   0.00507   0.00000   0.01067   0.01069   2.64579
    R2        2.64184   0.00260   0.00000   0.00585   0.00589   2.64773
    R3        2.98287  -0.02934   0.00000  -0.11186  -0.11186   2.87101
    R4        2.64152  -0.00493   0.00000  -0.01084  -0.01086   2.63066
    R5        2.03774   0.00123   0.00000   0.00332   0.00332   2.04106
    R6        2.61476   0.00296   0.00000   0.00573   0.00570   2.62046
    R7        2.04597  -0.00054   0.00000  -0.00147  -0.00147   2.04450
    R8        2.63480   0.00056   0.00000   0.00120   0.00118   2.63598
    R9        3.35370  -0.01053   0.00000  -0.03623  -0.03623   3.31748
   R10        2.63000   0.00067   0.00000   0.00172   0.00173   2.63173
   R11        3.30098  -0.00117   0.00000  -0.00371  -0.00371   3.29727
   R12        2.03206  -0.00089   0.00000  -0.00237  -0.00237   2.02969
   R13        2.62748   0.00690   0.00000   0.01445   0.01447   2.64195
   R14        2.67931  -0.00239   0.00000  -0.00584  -0.00569   2.67361
   R15        2.63582  -0.00346   0.00000  -0.00688  -0.00700   2.62882
   R16        2.03233   0.00199   0.00000   0.00531   0.00531   2.03764
   R17        2.61550   0.00557   0.00000   0.01164   0.01149   2.62699
   R18        3.31487  -0.00523   0.00000  -0.01688  -0.01688   3.29799
   R19        2.62056  -0.00126   0.00000  -0.00268  -0.00271   2.61785
   R20        3.33645  -0.00928   0.00000  -0.03107  -0.03107   3.30539
   R21        2.65357  -0.00526   0.00000  -0.01191  -0.01179   2.64178
   R22        2.04678  -0.00076   0.00000  -0.00208  -0.00208   2.04470
   R23        3.27351   0.00934   0.00000   0.02821   0.02821   3.30172
    A1        2.05940  -0.00358   0.00000  -0.01328  -0.01342   2.04599
    A2        2.11210  -0.00529   0.00000  -0.02020  -0.02045   2.09165
    A3        2.11103   0.00891   0.00000   0.03477   0.03452   2.14555
    A4        2.10941   0.00257   0.00000   0.01016   0.01019   2.11961
    A5        2.15930  -0.00478   0.00000  -0.02581  -0.02583   2.13347
    A6        2.01446   0.00221   0.00000   0.01563   0.01561   2.03007
    A7        2.09712   0.00153   0.00000   0.00503   0.00501   2.10213
    A8        2.08174   0.00128   0.00000   0.00961   0.00962   2.09136
    A9        2.10432  -0.00281   0.00000  -0.01463  -0.01462   2.08969
   A10        2.09444  -0.00319   0.00000  -0.01313  -0.01318   2.08126
   A11        2.07713  -0.00009   0.00000   0.00009   0.00010   2.07723
   A12        2.11159   0.00328   0.00000   0.01310   0.01311   2.12470
   A13        2.08275   0.00276   0.00000   0.01097   0.01098   2.09373
   A14        2.12155  -0.00005   0.00000  -0.00033  -0.00034   2.12121
   A15        2.07888  -0.00271   0.00000  -0.01062  -0.01063   2.06824
   A16        2.12300  -0.00007   0.00000   0.00061   0.00063   2.12364
   A17        2.10779   0.00130   0.00000   0.00725   0.00717   2.11496
   A18        2.05232  -0.00122   0.00000  -0.00766  -0.00773   2.04458
   A19        2.02369   0.00268   0.00000   0.01071   0.01036   2.03405
   A20        2.20312   0.00524   0.00000   0.02062   0.02027   2.22338
   A21        2.05592  -0.00790   0.00000  -0.03023  -0.03019   2.02573
   A22        2.16261  -0.00066   0.00000  -0.00130  -0.00132   2.16129
   A23        2.11484  -0.00295   0.00000  -0.01880  -0.01880   2.09604
   A24        2.00573   0.00361   0.00000   0.02010   0.02010   2.02584
   A25        2.06453   0.00290   0.00000   0.01312   0.01292   2.07745
   A26        2.07109   0.00095   0.00000   0.00272   0.00281   2.07390
   A27        2.14757  -0.00385   0.00000  -0.01583  -0.01573   2.13183
   A28        2.07596  -0.00066   0.00000  -0.00156  -0.00168   2.07428
   A29        2.13405  -0.00024   0.00000  -0.00138  -0.00135   2.13270
   A30        2.07312   0.00090   0.00000   0.00305   0.00308   2.07620
   A31        2.15511  -0.00588   0.00000  -0.02626  -0.02610   2.12901
   A32        2.05307   0.00399   0.00000   0.01934   0.01926   2.07232
   A33        2.07500   0.00190   0.00000   0.00694   0.00686   2.08185
   A34        2.05198   0.01219   0.00000   0.04653   0.04653   2.09852
   A35        2.26672  -0.01507   0.00000  -0.05742  -0.05791   2.20882
   A36        1.96406   0.00292   0.00000   0.01219   0.01166   1.97572
    D1       -0.02289   0.00046   0.00000   0.01828   0.01815  -0.00475
    D2        3.11454   0.00039   0.00000   0.01380   0.01360   3.12814
    D3       -3.12595  -0.00065   0.00000  -0.02039  -0.01974   3.13749
    D4        0.01148  -0.00073   0.00000  -0.02487  -0.02429  -0.01281
    D5        0.01977  -0.00032   0.00000  -0.01376  -0.01369   0.00608
    D6       -3.10806  -0.00084   0.00000  -0.03150  -0.03163  -3.13969
    D7        3.12285   0.00046   0.00000   0.02361   0.02416  -3.13618
    D8       -0.00498  -0.00005   0.00000   0.00587   0.00622   0.00124
    D9       -0.11309   0.00007   0.00000  -0.03190  -0.03153  -0.14462
   D10        3.06176  -0.00076   0.00000  -0.07149  -0.07158   2.99018
   D11        3.06818  -0.00079   0.00000  -0.07061  -0.07052   2.99766
   D12       -0.04016  -0.00162   0.00000  -0.11020  -0.11058  -0.15073
   D13        0.01025  -0.00027   0.00000  -0.01004  -0.00996   0.00029
   D14       -3.13521  -0.00017   0.00000  -0.00698  -0.00700   3.14098
   D15       -3.12751  -0.00018   0.00000  -0.00583  -0.00558  -3.13309
   D16        0.01022  -0.00009   0.00000  -0.00277  -0.00261   0.00760
   D17        0.00635  -0.00006   0.00000  -0.00329  -0.00334   0.00302
   D18        3.13990   0.00017   0.00000   0.00519   0.00510  -3.13819
   D19       -3.13133  -0.00017   0.00000  -0.00644  -0.00635  -3.13768
   D20        0.00222   0.00006   0.00000   0.00204   0.00209   0.00430
   D21       -0.00952   0.00022   0.00000   0.00787   0.00781  -0.00171
   D22        3.12708   0.00034   0.00000   0.01312   0.01317   3.14025
   D23        3.14029   0.00000   0.00000  -0.00072  -0.00080   3.13949
   D24       -0.00631   0.00011   0.00000   0.00453   0.00456  -0.00174
   D25       -0.00379  -0.00006   0.00000   0.00072   0.00083  -0.00296
   D26        3.12446   0.00046   0.00000   0.01803   0.01819  -3.14054
   D27       -3.14051  -0.00017   0.00000  -0.00442  -0.00440   3.13828
   D28       -0.01226   0.00035   0.00000   0.01289   0.01296   0.00071
   D29       -3.13439  -0.00061   0.00000  -0.02204  -0.02137   3.12743
   D30        0.00600  -0.00070   0.00000  -0.02653  -0.02607  -0.02007
   D31       -0.02312   0.00039   0.00000   0.01500   0.01497  -0.00816
   D32        3.11726   0.00030   0.00000   0.01051   0.01027   3.12753
   D33        3.12806   0.00095   0.00000   0.03509   0.03483  -3.12030
   D34        0.01993  -0.00072   0.00000  -0.01791  -0.01712   0.00281
   D35        0.02027  -0.00008   0.00000  -0.00587  -0.00574   0.01453
   D36       -3.08785  -0.00176   0.00000  -0.05886  -0.05770   3.13763
   D37        0.00807  -0.00018   0.00000  -0.00947  -0.00963  -0.00156
   D38       -3.13529  -0.00016   0.00000  -0.00729  -0.00747   3.14042
   D39       -3.13239  -0.00009   0.00000  -0.00521  -0.00508  -3.13747
   D40        0.00744  -0.00007   0.00000  -0.00303  -0.00292   0.00452
   D41        0.00927  -0.00009   0.00000  -0.00411  -0.00430   0.00497
   D42        3.13957   0.00020   0.00000   0.00799   0.00801  -3.13561
   D43       -3.13047  -0.00011   0.00000  -0.00641  -0.00655  -3.13703
   D44       -0.00018   0.00017   0.00000   0.00569   0.00576   0.00558
   D45       -0.01124   0.00030   0.00000   0.01277   0.01292   0.00168
   D46        3.12428   0.00040   0.00000   0.01770   0.01811  -3.14079
   D47        3.14125   0.00003   0.00000   0.00113   0.00104  -3.14089
   D48       -0.00641   0.00013   0.00000   0.00605   0.00623  -0.00018
   D49       -0.00396  -0.00026   0.00000  -0.00772  -0.00790  -0.01187
   D50        3.10982   0.00075   0.00000   0.03483   0.03606  -3.13730
   D51       -3.13942  -0.00036   0.00000  -0.01274  -0.01316   3.13061
   D52       -0.02563   0.00065   0.00000   0.02981   0.03080   0.00517
         Item               Value     Threshold  Converged?
 Maximum Force            0.029335     0.000450     NO 
 RMS     Force            0.004427     0.000300     NO 
 Maximum Displacement     0.269873     0.001800     NO 
 RMS     Displacement     0.064915     0.001200     NO 
 Predicted change in Energy=-4.586577D-03
 GradGradGradGradGradGradGradGradGradGradGradGradGradGradGradGradGradGrad

                          Input orientation:                          
 ---------------------------------------------------------------------
 Center     Atomic      Atomic             Coordinates (Angstroms)
 Number     Number       Type             X           Y           Z
 ---------------------------------------------------------------------
      1          6           0       -0.791750   -0.317464   -0.016769
      2          6           0       -1.214286   -1.647538   -0.129125
      3          6           0       -2.565555   -1.982086   -0.136518
      4          6           0       -3.534251   -0.995372   -0.032020
      5          6           0       -3.139777    0.338133    0.077078
      6          6           0       -1.785988    0.664793    0.082164
      7          6           0        0.692665    0.005981   -0.007176
      8          6           0        1.568506   -1.081255    0.066274
      9          6           0        2.954379   -0.960656    0.068454
     10          6           0        3.521376    0.306298   -0.007982
     11          6           0        2.686108    1.409254   -0.077916
     12          6           0        1.293671    1.285166   -0.071849
     13          1           0       -0.517498   -2.467517   -0.222423
     14          1           0       -2.862822   -3.018564   -0.225185
     15          1           0       -1.533203    1.705050    0.169231
     16          1           0        1.180061   -2.085024    0.131268
     17          1           0        3.129361    2.394470   -0.138108
     18         17           0        0.465394    2.820049   -0.175668
     19         17           0       -4.307892    1.627461    0.209775
     20         17           0        5.252958    0.553181   -0.020240
     21         17           0       -5.227206   -1.459845   -0.040092
     22         17           0        3.924793   -2.407876    0.166653
 ---------------------------------------------------------------------
                    Distance matrix (angstroms):
                    1          2          3          4          5
     1  C    0.000000
     2  C    1.400092   0.000000
     3  C    2.435506   1.392087   0.000000
     4  C    2.825085   2.411843   1.386685   0.000000
     5  C    2.439641   2.773613   2.399744   1.394901   0.000000
     6  C    1.401116   2.391309   2.767943   2.413629   1.392651
     7  C    1.519275   2.526946   3.819049   4.343978   3.847731
     8  C    2.482153   2.846539   4.235927   5.104426   4.917592
     9  C    3.801900   4.229493   5.617384   6.489501   6.231025
    10  C    4.358005   5.124318   6.504148   7.174733   6.661772
    11  C    3.883400   4.955771   6.251766   6.669123   5.925560
    12  C    2.630672   3.859259   5.056949   5.339594   4.535914
    13  H    2.177208   1.080085   2.106552   3.362181   3.851976
    14  H    3.410091   2.146302   1.081904   2.140429   3.381639
    15  H    2.162154   3.380913   3.841120   3.367043   2.111406
    16  H    2.652211   2.447875   3.756586   4.841357   4.953345
    17  H    4.769111   5.933395   7.182361   7.477032   6.601282
    18  Cl   3.383733   4.773135   5.678792   5.529488   4.384182
    19  Cl   4.024588   4.517839   4.022994   2.745221   1.744840
    20  Cl   6.107088   6.832295   8.220112   8.922623   8.396054
    21  Cl   4.580267   4.018294   2.714115   1.755533   2.757501
    22  Cl   5.162291   5.203434   6.511361   7.594207   7.580023
                    6          7          8          9         10
     6  C    0.000000
     7  C    2.566269   0.000000
     8  C    3.781741   1.398061   0.000000
     9  C    5.011323   2.460784   1.391112   0.000000
    10  C    5.320222   2.844609   2.396772   1.390143   0.000000
    11  C    4.536463   2.438851   2.733580   2.389533   1.385308
    12  C    3.145296   1.414816   2.386328   2.796668   2.434119
    13  H    3.393111   2.762068   2.521206   3.795941   4.904338
    14  H    3.849825   4.672996   4.845079   6.177462   7.201380
    15  H    1.074066   2.805787   4.170695   5.220588   5.247541
    16  H    4.044917   2.151517   1.078270   2.101512   3.349562
    17  H    5.215455   3.414603   3.815587   3.366030   2.128632
    18  Cl   3.127352   2.828254   4.061473   4.533031   3.960567
    19  Cl   2.702409   5.261353   6.472232   7.710960   7.942942
    20  Cl   7.040576   4.593024   4.031631   2.753731   1.749136
    21  Cl   4.046110   6.098737   6.807080   8.197518   8.925131
    22  Cl   6.485481   4.037769   2.705936   1.745220   2.749542
                   11         12         13         14         15
    11  C    0.000000
    12  C    1.397969   0.000000
    13  H    5.031235   4.169608   0.000000
    14  H    7.100556   5.985151   2.409192   0.000000
    15  H    4.236881   2.868037   4.312234   4.923005   0.000000
    16  H    3.810763   3.378216   1.775698   4.164548   4.661320
    17  H    1.082010   2.145858   6.078290   8.075567   4.723268
    18  Cl   2.632768   1.747194   5.378347   6.720780   2.314426
    19  Cl   7.003315   5.619073   5.596671   4.884973   2.776070
    20  Cl   2.706456   4.026713   6.516414   8.869343   6.885832
    21  Cl   8.417464   7.075162   4.819750   2.837987   4.868884
    22  Cl   4.020527   4.540732   4.459696   6.826287   6.834171
                   16         17         18         19         20
    16  H    0.000000
    17  H    4.892668   0.000000
    18  Cl   4.966357   2.698008   0.000000
    19  Cl   6.626186   7.484789   4.935089   0.000000
    20  Cl   4.855056   2.813166   5.299397   9.623764   0.000000
    21  Cl   6.439975   9.203128   7.123312   3.230948  10.671761
    22  Cl   2.763881   4.877307   6.278202   9.168583   3.250663
                   21         22
    21  Cl   0.000000
    22  Cl   9.203292   0.000000
 Stoichiometry    C12H5Cl5
 Framework group  C1[X(C12H5Cl5)]
 Deg. of freedom    60
 Full point group                 C1      NOp   1
 Largest Abelian subgroup         C1      NOp   1
 Largest concise Abelian subgroup C1      NOp   1
                         Standard orientation:                         
 ---------------------------------------------------------------------
 Center     Atomic      Atomic             Coordinates (Angstroms)
 Number     Number       Type             X           Y           Z
 ---------------------------------------------------------------------
      1          6           0       -0.787170   -0.305661   -0.028204
      2          6           0       -1.207402   -1.634673   -0.160081
      3          6           0       -2.558114   -1.971258   -0.173922
      4          6           0       -3.528543   -0.987702   -0.056529
      5          6           0       -3.136375    0.344742    0.072103
      6          6           0       -1.783127    0.673477    0.083530
      7          6           0        0.696703    0.020006   -0.012157
      8          6           0        1.574225   -1.066756    0.046828
      9          6           0        2.959896   -0.943967    0.052443
     10          6           0        3.524920    0.324862   -0.005178
     11          6           0        2.687941    1.427358   -0.060372
     12          6           0        1.295702    1.300951   -0.057798
     13          1           0       -0.509167   -2.452110   -0.264227
     14          1           0       -2.853585   -3.006841   -0.277760
     15          1           0       -1.532142    1.712789    0.185768
     16          1           0        1.187337   -2.071977    0.096990
     17          1           0        3.129661    2.414047   -0.105930
     18         17           0        0.465052    2.835824   -0.140692
     19         17           0       -4.306749    1.630156    0.221772
     20         17           0        5.256111    0.574686   -0.011768
     21         17           0       -5.220727   -1.454740   -0.073329
     22         17           0        3.932547   -2.390877    0.131146
 ---------------------------------------------------------------------
 Rotational constants (GHZ):           0.5869997           0.1279934           0.1052742
 Standard basis: 6-311+G(d,p) (5D, 7F)
 There are   461 symmetry adapted cartesian basis functions of A   symmetry.
 There are   444 symmetry adapted basis functions of A   symmetry.
   444 basis functions,   737 primitive gaussians,   461 cartesian basis functions
    81 alpha electrons       81 beta electrons
       nuclear repulsion energy      1656.5092533955 Hartrees.
 NAtoms=   22 NActive=   22 NUniq=   22 SFac= 1.00D+00 NAtFMM=   60 NAOKFM=F Big=F
 Integral buffers will be    131072 words long.
 Raffenetti 2 integral format.
 Two-electron integral symmetry is turned on.
 One-electron integrals computed using PRISM.
 NBasis=   444 RedAO= T EigKep=  1.02D-06  NBF=   444
 NBsUse=   440 1.00D-06 EigRej=  3.34D-07 NBFU=   440
 Initial guess from the checkpoint file:  "./Gau-102716.chk"
 B after Tr=    -0.000000    0.000000   -0.000000
         Rot=    1.000000   -0.000096    0.000095   -0.000932 Ang=  -0.11 deg.
 ExpMin= 4.38D-02 ExpMax= 1.06D+05 ExpMxC= 3.62D+03 IAcc=3 IRadAn=         5 AccDes= 0.00D+00
 Harris functional with IExCor=  402 and IRadAn=       5 diagonalized for initial guess.
 HarFok:  IExCor=  402 AccDes= 0.00D+00 IRadAn=         5 IDoV= 1 UseB2=F ITyADJ=14
 ICtDFT=  3500011 ScaDFX=  1.000000  1.000000  1.000000  1.000000
 FoFCou: FMM=F IPFlag=           0 FMFlag=      100000 FMFlg1=           0
         NFxFlg=           0 DoJE=T BraDBF=F KetDBF=T FulRan=T
         wScrn=  0.000000 ICntrl=       500 IOpCl=  0 I1Cent=   200000004 NGrid=           0
         NMat0=    1 NMatS0=      1 NMatT0=    0 NMatD0=    1 NMtDS0=    0 NMtDT0=    0
 Petite list used in FoFCou.
 Requested convergence on RMS density matrix=1.00D-08 within  32 cycles.
 Requested convergence on MAX density matrix=1.00D-06.
 Requested convergence on             energy=1.00D-06.
 No special actions if energy rises.
 SCF Done:  E(RB3LYP) =  -2761.50796471     A.U. after   15 cycles
            NFock= 15  Conv=0.65D-08     -V/T= 2.0027
 QCSCF skips out because SCF is already converged.
 Calling FoFJK, ICntrl=      2127 FMM=F ISym2X=0 I1Cent= 0 IOpClX= 0 NMat=1 NMatS=1 NMatT=0.
 ***** Axes restored to original set *****
 -------------------------------------------------------------------
 Center     Atomic                   Forces (Hartrees/Bohr)
 Number     Number              X              Y              Z
 -------------------------------------------------------------------
      1        6           0.013573318    0.007591290   -0.000580692
      2        6          -0.008953783   -0.005273952   -0.000853235
      3        6           0.007105853   -0.000358021   -0.000006098
      4        6          -0.008868123    0.000681373    0.000410513
      5        6           0.001969736   -0.001686374   -0.000241657
      6        6          -0.002724811   -0.001051221    0.000925907
      7        6          -0.018848365    0.001532710   -0.000158836
      8        6           0.010979125   -0.002224807    0.000848288
      9        6          -0.005101642   -0.002827775   -0.000038305
     10        6           0.005152667    0.001569533   -0.000100971
     11        6          -0.002381788    0.003336891    0.000223964
     12        6           0.011967733   -0.008326694   -0.000260049
     13        1          -0.000838642    0.000978935   -0.000786591
     14        1          -0.000750060    0.000012637   -0.000066027
     15        1          -0.000578807   -0.000204051    0.000765610
     16        1           0.001013120    0.001109886    0.000894962
     17        1          -0.000728647   -0.000168483    0.000043840
     18       17          -0.002892534    0.003818599   -0.001117261
     19       17          -0.000395373    0.000359204    0.000103900
     20       17          -0.002777911   -0.000591646    0.000091350
     21       17           0.003916048    0.001078438   -0.000094667
     22       17           0.000162888    0.000643525   -0.000003944
 -------------------------------------------------------------------
 Cartesian Forces:  Max     0.018848365 RMS     0.004489561

 GradGradGradGradGradGradGradGradGradGradGradGradGradGradGradGradGradGrad
 Berny optimization.
 Using GEDIIS/GDIIS optimizer.
 FormGI is forming the generalized inverse of G from B-inverse, IUseBI=4.
 Internal  Forces:  Max     0.007574207 RMS     0.002055539
 Search for a local minimum.
 Step number   2 out of a maximum of  121
 All quantities printed in internal units (Hartrees-Bohrs-Radians)
 Mixed Optimization -- RFO/linear search
 Update second derivatives using D2CorX and points    1    2
 DE= -5.88D-03 DEPred=-4.59D-03 R= 1.28D+00
 TightC=F SS=  1.41D+00  RLast= 2.60D-01 DXNew= 5.0454D-01 7.7870D-01
 Trust test= 1.28D+00 RLast= 2.60D-01 DXMaxT set to 5.05D-01
 ITU=  1  0
 Use linear search instead of GDIIS.
     Eigenvalues ---    0.00187   0.01459   0.01548   0.01904   0.02013
     Eigenvalues ---    0.02127   0.02142   0.02146   0.02150   0.02163
     Eigenvalues ---    0.02170   0.02181   0.02187   0.02206   0.02220
     Eigenvalues ---    0.02232   0.02245   0.02249   0.02284   0.15186
     Eigenvalues ---    0.16000   0.16000   0.16000   0.16210   0.17037
     Eigenvalues ---    0.22374   0.23099   0.23653   0.24176   0.24699
     Eigenvalues ---    0.24997   0.25000   0.25000   0.25000   0.25000
     Eigenvalues ---    0.25000   0.25127   0.27972   0.28877   0.29849
     Eigenvalues ---    0.30679   0.31536   0.32467   0.35619   0.35680
     Eigenvalues ---    0.36290   0.36563   0.36944   0.41039   0.42064
     Eigenvalues ---    0.42313   0.43372   0.45343   0.45928   0.46148
     Eigenvalues ---    0.46539   0.46693   0.47400   0.47814   0.48238
 RFO step:  Lambda=-5.52486958D-03 EMin= 1.87186589D-03
 Quartic linear search produced a step of  0.42100.
 Iteration  1 RMS(Cart)=  0.14764343 RMS(Int)=  0.03445557
 Iteration  2 RMS(Cart)=  0.12354622 RMS(Int)=  0.00347994
 Iteration  3 RMS(Cart)=  0.00563650 RMS(Int)=  0.00026970
 Iteration  4 RMS(Cart)=  0.00000910 RMS(Int)=  0.00026965
 Iteration  5 RMS(Cart)=  0.00000000 RMS(Int)=  0.00026965
 Variable       Old X    -DE/DX   Delta X   Delta X   Delta X     New X
                                 (Linear)    (Quad)   (Total)
    R1        2.64579   0.00639   0.00450   0.02051   0.02506   2.67085
    R2        2.64773   0.00199   0.00248   0.00727   0.00982   2.65755
    R3        2.87101  -0.00383  -0.04709  -0.04234  -0.08943   2.78158
    R4        2.63066  -0.00310  -0.00457  -0.01118  -0.01577   2.61489
    R5        2.04106  -0.00122   0.00140  -0.00361  -0.00221   2.03885
    R6        2.62046   0.00227   0.00240   0.00704   0.00936   2.62981
    R7        2.04450   0.00020  -0.00062   0.00040  -0.00022   2.04429
    R8        2.63598  -0.00105   0.00050  -0.00300  -0.00255   2.63343
    R9        3.31748  -0.00406  -0.01525  -0.02610  -0.04135   3.27612
   R10        2.63173   0.00019   0.00073   0.00092   0.00168   2.63341
   R11        3.29727   0.00054  -0.00156   0.00146  -0.00011   3.29716
   R12        2.02969  -0.00027  -0.00100  -0.00148  -0.00248   2.02721
   R13        2.64195   0.00757   0.00609   0.02441   0.03058   2.67253
   R14        2.67361   0.00124  -0.00240   0.00273   0.00058   2.67420
   R15        2.62882  -0.00275  -0.00295  -0.00908  -0.01219   2.61663
   R16        2.03764  -0.00134   0.00224  -0.00358  -0.00135   2.03629
   R17        2.62699   0.00199   0.00484   0.00771   0.01230   2.63929
   R18        3.29799  -0.00044  -0.00711  -0.00548  -0.01259   3.28540
   R19        2.61785   0.00023  -0.00114  -0.00039  -0.00161   2.61625
   R20        3.30539  -0.00283  -0.01308  -0.01911  -0.03219   3.27320
   R21        2.64178  -0.00272  -0.00497  -0.01066  -0.01546   2.62632
   R22        2.04470  -0.00045  -0.00088  -0.00210  -0.00297   2.04173
   R23        3.30172   0.00479   0.01187   0.02519   0.03706   3.33878
    A1        2.04599  -0.00504  -0.00565  -0.02795  -0.03354   2.01244
    A2        2.09165   0.00428  -0.00861   0.01735   0.00854   2.10019
    A3        2.14555   0.00076   0.01453   0.01060   0.02492   2.17047
    A4        2.11961   0.00232   0.00429   0.01558   0.01985   2.13945
    A5        2.13347  -0.00112  -0.01087  -0.01126  -0.02223   2.11124
    A6        2.03007  -0.00121   0.00657  -0.00448   0.00198   2.03205
    A7        2.10213   0.00111   0.00211   0.00615   0.00819   2.11032
    A8        2.09136   0.00018   0.00405   0.00495   0.00903   2.10040
    A9        2.08969  -0.00129  -0.00616  -0.01110  -0.01723   2.07246
   A10        2.08126  -0.00212  -0.00555  -0.01536  -0.02100   2.06026
   A11        2.07723   0.00105   0.00004   0.00629   0.00637   2.08360
   A12        2.12470   0.00107   0.00552   0.00908   0.01463   2.13933
   A13        2.09373   0.00175   0.00462   0.01002   0.01466   2.10839
   A14        2.12121  -0.00096  -0.00014  -0.00438  -0.00453   2.11668
   A15        2.06824  -0.00080  -0.00448  -0.00565  -0.01014   2.05810
   A16        2.12364   0.00197   0.00027   0.01155   0.01185   2.13549
   A17        2.11496  -0.00043   0.00302  -0.00011   0.00273   2.11769
   A18        2.04458  -0.00153  -0.00326  -0.01151  -0.01494   2.02964
   A19        2.03405   0.00696   0.00436   0.03727   0.04128   2.07534
   A20        2.22338  -0.00029   0.00853   0.00216   0.01036   2.23374
   A21        2.02573  -0.00667  -0.01271  -0.03926  -0.05165   1.97408
   A22        2.16129   0.00171  -0.00055   0.01073   0.01007   2.17137
   A23        2.09604  -0.00027  -0.00792  -0.00433  -0.01235   2.08369
   A24        2.02584  -0.00144   0.00846  -0.00653   0.00182   2.02765
   A25        2.07745   0.00130   0.00544   0.00914   0.01422   2.09168
   A26        2.07390   0.00016   0.00118   0.00150   0.00284   2.07674
   A27        2.13183  -0.00146  -0.00662  -0.01064  -0.01711   2.11473
   A28        2.07428  -0.00115  -0.00071  -0.00750  -0.00848   2.06580
   A29        2.13270   0.00025  -0.00057   0.00163   0.00118   2.13388
   A30        2.07620   0.00090   0.00130   0.00588   0.00730   2.08350
   A31        2.12901  -0.00101  -0.01099  -0.01239  -0.02322   2.10579
   A32        2.07232   0.00111   0.00811   0.01213   0.02015   2.09247
   A33        2.08185  -0.00010   0.00289   0.00026   0.00306   2.08491
   A34        2.09852   0.00583   0.01959   0.03930   0.05907   2.15759
   A35        2.20882  -0.00410  -0.02438  -0.03296  -0.05784   2.15098
   A36        1.97572  -0.00173   0.00491  -0.00655  -0.00226   1.97346
    D1       -0.00475   0.00009   0.00764   0.00011   0.00756   0.00281
    D2        3.12814  -0.00040   0.00573  -0.02255  -0.01688   3.11126
    D3        3.13749  -0.00008  -0.00831   0.00103  -0.00693   3.13056
    D4       -0.01281  -0.00056  -0.01022  -0.02163  -0.03137  -0.04418
    D5        0.00608  -0.00001  -0.00576   0.00309  -0.00253   0.00356
    D6       -3.13969  -0.00045  -0.01331  -0.01516  -0.02857   3.11493
    D7       -3.13618   0.00016   0.01017   0.00214   0.01261  -3.12356
    D8        0.00124  -0.00028   0.00262  -0.01611  -0.01343  -0.01219
    D9       -0.14462  -0.00262  -0.01327  -0.36315  -0.37638  -0.52100
   D10        2.99018  -0.00237  -0.03014  -0.33121  -0.36098   2.62919
   D11        2.99766  -0.00280  -0.02969  -0.36216  -0.39222   2.60544
   D12       -0.15073  -0.00254  -0.04655  -0.33022  -0.37682  -0.52756
   D13        0.00029  -0.00009  -0.00419  -0.00267  -0.00684  -0.00655
   D14        3.14098  -0.00020  -0.00295  -0.00828  -0.01132   3.12966
   D15       -3.13309   0.00036  -0.00235   0.01875   0.01669  -3.11641
   D16        0.00760   0.00025  -0.00110   0.01314   0.01221   0.01981
   D17        0.00302   0.00003  -0.00140   0.00211   0.00070   0.00372
   D18       -3.13819  -0.00005   0.00215  -0.00313  -0.00103  -3.13922
   D19       -3.13768   0.00014  -0.00267   0.00770   0.00509  -3.13258
   D20        0.00430   0.00006   0.00088   0.00247   0.00336   0.00766
   D21       -0.00171   0.00005   0.00329   0.00104   0.00424   0.00253
   D22        3.14025   0.00012   0.00555   0.00352   0.00904  -3.13389
   D23        3.13949   0.00013  -0.00034   0.00642   0.00603  -3.13767
   D24       -0.00174   0.00020   0.00192   0.00890   0.01083   0.00909
   D25       -0.00296  -0.00007   0.00035  -0.00378  -0.00336  -0.00632
   D26       -3.14054   0.00035   0.00766   0.01375   0.02141  -3.11913
   D27        3.13828  -0.00014  -0.00185  -0.00618  -0.00801   3.13027
   D28        0.00071   0.00028   0.00546   0.01134   0.01676   0.01747
   D29        3.12743   0.00032  -0.00900   0.02458   0.01602  -3.13974
   D30       -0.02007  -0.00026  -0.01097  -0.00191  -0.01258  -0.03265
   D31       -0.00816   0.00008   0.00630  -0.00379   0.00264  -0.00551
   D32        3.12753  -0.00050   0.00432  -0.03028  -0.02596   3.10158
   D33       -3.12030  -0.00039   0.01466  -0.03173  -0.01709  -3.13738
   D34        0.00281  -0.00087  -0.00721  -0.04772  -0.05391  -0.05110
   D35        0.01453  -0.00009  -0.00242   0.00033  -0.00213   0.01240
   D36        3.13763  -0.00057  -0.02429  -0.01566  -0.03896   3.09868
   D37       -0.00156   0.00003  -0.00405   0.00448   0.00024  -0.00131
   D38        3.14042  -0.00018  -0.00314  -0.00616  -0.00958   3.13085
   D39       -3.13747   0.00059  -0.00214   0.03000   0.02806  -3.10941
   D40        0.00452   0.00038  -0.00123   0.01935   0.01823   0.02275
   D41        0.00497  -0.00005  -0.00181  -0.00104  -0.00302   0.00195
   D42       -3.13561  -0.00010   0.00337  -0.00596  -0.00251  -3.13812
   D43       -3.13703   0.00017  -0.00276   0.00998   0.00703  -3.13000
   D44        0.00558   0.00012   0.00242   0.00506   0.00754   0.01311
   D45        0.00168  -0.00001   0.00544  -0.00262   0.00298   0.00466
   D46       -3.14079   0.00010   0.00762   0.00129   0.00937  -3.13142
   D47       -3.14089   0.00004   0.00044   0.00214   0.00249  -3.13840
   D48       -0.00018   0.00015   0.00262   0.00604   0.00887   0.00870
   D49       -0.01187   0.00003  -0.00333   0.00271  -0.00071  -0.01257
   D50       -3.13730   0.00049   0.01518   0.01703   0.03341  -3.10389
   D51        3.13061  -0.00007  -0.00554  -0.00123  -0.00707   3.12353
   D52        0.00517   0.00038   0.01297   0.01310   0.02705   0.03222
         Item               Value     Threshold  Converged?
 Maximum Force            0.007574     0.000450     NO 
 RMS     Force            0.002056     0.000300     NO 
 Maximum Displacement     1.071241     0.001800     NO 
 RMS     Displacement     0.268447     0.001200     NO 
 Predicted change in Energy=-5.713760D-03
 GradGradGradGradGradGradGradGradGradGradGradGradGradGradGradGradGradGrad

                          Input orientation:                          
 ---------------------------------------------------------------------
 Center     Atomic      Atomic             Coordinates (Angstroms)
 Number     Number       Type             X           Y           Z
 ---------------------------------------------------------------------
      1          6           0       -0.770358   -0.310658   -0.039646
      2          6           0       -1.240790   -1.598668   -0.382124
      3          6           0       -2.585726   -1.924036   -0.386123
      4          6           0       -3.550086   -0.982465   -0.039554
      5          6           0       -3.121392    0.297481    0.306784
      6          6           0       -1.766125    0.621797    0.301957
      7          6           0        0.673108   -0.022500   -0.038466
[...]
                 (A) (A) (A) (A) (A) (A) (A) (A) (A) (A) (A) (A)
                 (A) (A) (A) (A) (A) (A) (A) (A) (A) (A) (A) (A)
                 (A) (A) (A) (A) (A) (A) (A) (A) (A)
       Virtual   (A) (A) (A) (A) (A) (A) (A) (A) (A) (A) (A) (A)
                 (A) (A) (A) (A) (A) (A) (A) (A) (A) (A) (A) (A)
                 (A) (A) (A) (A) (A) (A) (A) (A) (A) (A) (A) (A)
                 (A) (A) (A) (A) (A) (A) (A) (A) (A) (A) (A) (A)
                 (A) (A) (A) (A) (A) (A) (A) (A) (A) (A) (A) (A)
                 (A) (A) (A) (A) (A) (A) (A) (A) (A) (A) (A) (A)
                 (A) (A) (A) (A) (A) (A) (A) (A) (A) (A) (A) (A)
                 (A) (A) (A) (A) (A) (A) (A) (A) (A) (A) (A) (A)
                 (A) (A) (A) (A) (A) (A) (A) (A) (A) (A) (A) (A)
                 (A) (A) (A) (A) (A) (A) (A) (A) (A) (A) (A) (A)
                 (A) (A) (A) (A) (A) (A) (A) (A) (A) (A) (A) (A)
                 (A) (A) (A) (A) (A) (A) (A) (A) (A) (A) (A) (A)
                 (A) (A) (A) (A) (A) (A) (A) (A) (A) (A) (A) (A)
                 (A) (A) (A) (A) (A) (A) (A) (A) (A) (A) (A) (A)
                 (A) (A) (A) (A) (A) (A) (A) (A) (A) (A) (A) (A)
                 (A) (A) (A) (A) (A) (A) (A) (A) (A) (A) (A) (A)
                 (A) (A) (A) (A) (A) (A) (A) (A) (A) (A) (A) (A)
                 (A) (A) (A) (A) (A) (A) (A) (A) (A) (A) (A) (A)
                 (A) (A) (A) (A) (A) (A) (A) (A) (A) (A) (A) (A)
                 (A) (A) (A) (A) (A) (A) (A) (A) (A) (A) (A) (A)
                 (A) (A) (A) (A) (A) (A) (A) (A) (A) (A) (A) (A)
                 (A) (A) (A) (A) (A) (A) (A) (A) (A) (A) (A) (A)
                 (A) (A) (A) (A) (A) (A) (A) (A) (A) (A) (A) (A)
                 (A) (A) (A) (A) (A) (A) (A) (A) (A) (A) (A) (A)
                 (A) (A) (A) (A) (A) (A) (A) (A) (A) (A) (A) (A)
                 (A) (A) (A) (A) (A) (A) (A) (A) (A) (A) (A) (A)
                 (A) (A) (A) (A) (A) (A) (A) (A) (A) (A) (A) (A)
                 (A) (A) (A) (A) (A) (A) (A) (A) (A) (A) (A) (A)
                 (A) (A) (A) (A) (A) (A) (A) (A) (A) (A) (A) (A)
                 (A) (A) (A) (A) (A) (A) (A) (A) (A) (A) (A)
 The electronic state is 1-A.
 Alpha  occ. eigenvalues -- -101.57803-101.57700-101.57536-101.57139-101.57066
 Alpha  occ. eigenvalues --  -10.27436 -10.27158 -10.27098 -10.26601 -10.26546
 Alpha  occ. eigenvalues --  -10.23308 -10.22361 -10.22253 -10.22156 -10.21329
 Alpha  occ. eigenvalues --  -10.21264 -10.20982  -9.49257  -9.49154  -9.49006
 Alpha  occ. eigenvalues --   -9.48595  -9.48524  -7.25744  -7.25640  -7.25478
 Alpha  occ. eigenvalues --   -7.25077  -7.25006  -7.24736  -7.24677  -7.24632
 Alpha  occ. eigenvalues --   -7.24577  -7.24488  -7.24437  -7.24079  -7.24019
 Alpha  occ. eigenvalues --   -7.24005  -7.23947  -0.94844  -0.93460  -0.90829
 Alpha  occ. eigenvalues --   -0.88341  -0.87524  -0.86837  -0.84388  -0.79727
 Alpha  occ. eigenvalues --   -0.77235  -0.75864  -0.73637  -0.66310  -0.65338
 Alpha  occ. eigenvalues --   -0.63474  -0.60574  -0.55311  -0.53718  -0.52329
 Alpha  occ. eigenvalues --   -0.51153  -0.49853  -0.48344  -0.46631  -0.46376
 Alpha  occ. eigenvalues --   -0.46063  -0.44829  -0.43660  -0.43075  -0.41436
 Alpha  occ. eigenvalues --   -0.40079  -0.39811  -0.39310  -0.36994  -0.36328
 Alpha  occ. eigenvalues --   -0.35775  -0.34942  -0.34291  -0.33757  -0.33502
 Alpha  occ. eigenvalues --   -0.32952  -0.32279  -0.29167  -0.27890  -0.27231
 Alpha  occ. eigenvalues --   -0.25860
 Alpha virt. eigenvalues --   -0.06932  -0.05881  -0.04740  -0.03565  -0.02754
 Alpha virt. eigenvalues --   -0.02067  -0.00698  -0.00199   0.00643   0.01797
 Alpha virt. eigenvalues --    0.01854   0.02383   0.02511   0.03502   0.03770
 Alpha virt. eigenvalues --    0.04182   0.04763   0.05338   0.05903   0.05956
 Alpha virt. eigenvalues --    0.06614   0.07028   0.07253   0.08137   0.08307
 Alpha virt. eigenvalues --    0.08810   0.09028   0.09605   0.09766   0.10224
 Alpha virt. eigenvalues --    0.10777   0.10974   0.11257   0.11615   0.11831
 Alpha virt. eigenvalues --    0.12214   0.12299   0.13042   0.13350   0.13746
 Alpha virt. eigenvalues --    0.14201   0.14413   0.14595   0.15104   0.15263
 Alpha virt. eigenvalues --    0.15603   0.16401   0.16814   0.17356   0.17564
 Alpha virt. eigenvalues --    0.17894   0.18316   0.18628   0.19143   0.19569
 Alpha virt. eigenvalues --    0.19773   0.20389   0.20468   0.20807   0.21050
 Alpha virt. eigenvalues --    0.21279   0.21765   0.22603   0.22754   0.23079
 Alpha virt. eigenvalues --    0.23646   0.23913   0.24000   0.24781   0.24982
 Alpha virt. eigenvalues --    0.25197   0.25549   0.25750   0.26478   0.26790
 Alpha virt. eigenvalues --    0.27336   0.27664   0.28342   0.28679   0.29141
 Alpha virt. eigenvalues --    0.29401   0.29725   0.29964   0.31320   0.31464
 Alpha virt. eigenvalues --    0.32369   0.33307   0.33678   0.34123   0.39894
 Alpha virt. eigenvalues --    0.41308   0.42147   0.42947   0.43804   0.44264
 Alpha virt. eigenvalues --    0.44547   0.44942   0.45668   0.46324   0.46769
 Alpha virt. eigenvalues --    0.47009   0.47505   0.47574   0.48011   0.48474
 Alpha virt. eigenvalues --    0.48696   0.49987   0.51842   0.53143   0.54292
 Alpha virt. eigenvalues --    0.55128   0.55502   0.55960   0.56765   0.57451
 Alpha virt. eigenvalues --    0.57709   0.58637   0.59805   0.60029   0.60805
 Alpha virt. eigenvalues --    0.61309   0.61901   0.62275   0.63639   0.64320
 Alpha virt. eigenvalues --    0.64879   0.65696   0.66378   0.67119   0.67167
 Alpha virt. eigenvalues --    0.67860   0.68728   0.69294   0.70031   0.70539
 Alpha virt. eigenvalues --    0.70959   0.72324   0.74350   0.77205   0.79218
 Alpha virt. eigenvalues --    0.79932   0.80861   0.81324   0.82656   0.82941
 Alpha virt. eigenvalues --    0.83580   0.84021   0.84212   0.84629   0.84817
 Alpha virt. eigenvalues --    0.85036   0.85368   0.85577   0.85816   0.86196
 Alpha virt. eigenvalues --    0.87254   0.87565   0.88099   0.88603   0.89222
 Alpha virt. eigenvalues --    0.90339   0.90472   0.90907   0.91201   0.92105
 Alpha virt. eigenvalues --    0.92547   0.92997   0.93426   0.93932   0.94130
 Alpha virt. eigenvalues --    0.95218   0.95702   0.96702   0.96962   0.99208
 Alpha virt. eigenvalues --    1.00295   1.00849   1.01734   1.03445   1.05221
 Alpha virt. eigenvalues --    1.07059   1.08798   1.09787   1.11473   1.12661
 Alpha virt. eigenvalues --    1.15496   1.16421   1.21086   1.21993   1.23055
 Alpha virt. eigenvalues --    1.24023   1.25248   1.25767   1.26958   1.27164
 Alpha virt. eigenvalues --    1.28555   1.29157   1.30200   1.30641   1.32121
 Alpha virt. eigenvalues --    1.34122   1.35528   1.41058   1.44092   1.48477
 Alpha virt. eigenvalues --    1.49706   1.50367   1.51753   1.54110   1.54713
 Alpha virt. eigenvalues --    1.55908   1.56334   1.59188   1.60785   1.62483
 Alpha virt. eigenvalues --    1.63824   1.67152   1.68801   1.69268   1.71082
 Alpha virt. eigenvalues --    1.72467   1.73220   1.77223   1.77912   1.80926
 Alpha virt. eigenvalues --    1.83166   1.84299   1.87709   1.88092   1.89082
 Alpha virt. eigenvalues --    1.90809   1.91165   1.92936   1.93436   1.94838
 Alpha virt. eigenvalues --    1.96387   1.96822   1.97968   1.99987   2.02969
 Alpha virt. eigenvalues --    2.04367   2.06774   2.09176   2.11315   2.12277
 Alpha virt. eigenvalues --    2.14833   2.18651   2.22443   2.23252   2.24142
 Alpha virt. eigenvalues --    2.25139   2.26362   2.27936   2.28192   2.28909
 Alpha virt. eigenvalues --    2.29611   2.31411   2.33250   2.36712   2.39505
 Alpha virt. eigenvalues --    2.40053   2.42692   2.43084   2.44221   2.48404
 Alpha virt. eigenvalues --    2.48772   2.50877   2.51794   2.55143   2.55546
 Alpha virt. eigenvalues --    2.57397   2.59291   2.60655   2.61653   2.65487
 Alpha virt. eigenvalues --    2.65985   2.67353   2.70185   2.72458   2.73701
 Alpha virt. eigenvalues --    2.74014   2.74572   2.75384   2.76903   2.78109
 Alpha virt. eigenvalues --    2.78636   2.79460   2.82916   2.83180   2.84003
 Alpha virt. eigenvalues --    2.88111   2.91027   2.96647   2.98651   3.04282
 Alpha virt. eigenvalues --    3.06026   3.07867   3.11525   3.12692   3.14972
 Alpha virt. eigenvalues --    3.15489   3.19081   3.22086   3.25724   3.32781
 Alpha virt. eigenvalues --    3.34612   3.41150   3.48638   3.50881   3.53101
 Alpha virt. eigenvalues --    3.63861   3.70737   3.77699   3.81631   3.85654
 Alpha virt. eigenvalues --    3.91317   4.06302   4.11171   4.11817   4.36459
 Alpha virt. eigenvalues --    4.79722   4.82429   9.74594   9.76010   9.78851
 Alpha virt. eigenvalues --    9.79750   9.80404  23.37346  23.53874  23.82231
 Alpha virt. eigenvalues --   23.88088  23.88709  23.89188  23.94801  24.00027
 Alpha virt. eigenvalues --   24.03711  24.05850  24.09556  24.14376  25.77747
 Alpha virt. eigenvalues --   25.78378  25.85762  25.86816  25.87397  26.06953
 Alpha virt. eigenvalues --   26.08092  26.10763  26.16931  26.29535  26.48967
 Alpha virt. eigenvalues --   26.49889  26.68454  26.75350  26.78184 215.73663
 Alpha virt. eigenvalues --  215.74949 215.78263 215.79301 215.80286
          Condensed to atoms (all electrons):
               1          2          3          4          5          6
     1  C   27.809956  -4.482534  -2.346654  -6.414483  -3.150481  -2.427484
     2  C   -4.482534  34.538922  -4.134244   0.626911  -1.911511 -20.141434
     3  C   -2.346654  -4.134244  18.731389  -0.243997  -8.749702   2.643227
     4  C   -6.414483   0.626911  -0.243997  24.648470  -5.760622  -5.590245
     5  C   -3.150481  -1.911511  -8.749702  -5.760622  24.115198   2.098151
     6  C   -2.427484 -20.141434   2.643227  -5.590245   2.098151  30.682974
     7  C    2.498405   1.207371   0.072250  -0.345572  -0.719759  -1.986752
     8  C   -2.311724   3.015570   0.031197   0.124525   0.175442  -2.444137
     9  C   -0.767299   0.003979   0.066049   0.078842   0.067969  -0.224245
    10  C   -0.182980  -0.439796   0.008328  -0.042605   0.135458   0.598303
    11  C   -0.876957   0.447459  -0.001584  -0.007495   0.053398  -0.289876
    12  C   -1.892011  -2.799312   0.175715   0.121428   0.278755   3.391254
    13  H    0.036588   0.322634  -0.033127  -0.003214  -0.017588   0.026525
    14  H    0.002845  -0.012499   0.295415   0.055110   0.050038  -0.037271
    15  H    0.068148   0.062451  -0.026399   0.031482  -0.054067   0.290090
    16  H   -0.037644   0.094912   0.002240   0.004249  -0.006235  -0.061893
    17  H    0.011120   0.001743  -0.000285   0.000082  -0.000739  -0.003080
    18  Cl   0.056418  -0.355263  -0.054549  -0.081064   0.040127   0.425853
    19  Cl  -0.614112   0.190881   0.278004  -0.180097  -0.801666   0.360729
    20  Cl   0.016028   0.006415   0.001994  -0.000211   0.001633  -0.002915
    21  Cl   0.004492   0.129088   0.096461  -1.064834   0.260894  -0.076682
    22  Cl  -0.056300   0.053377   0.026861   0.004236  -0.009918  -0.044126
               7          8          9         10         11         12
     1  C    2.498405  -2.311724  -0.767299  -0.182980  -0.876957  -1.892011
     2  C    1.207371   3.015570   0.003979  -0.439796   0.447459  -2.799312
     3  C    0.072250   0.031197   0.066049   0.008328  -0.001584   0.175715
     4  C   -0.345572   0.124525   0.078842  -0.042605  -0.007495   0.121428
     5  C   -0.719759   0.175442   0.067969   0.135458   0.053398   0.278755
     6  C   -1.986752  -2.444137  -0.224245   0.598303  -0.289876   3.391254
     7  C   17.536012   1.149734  -4.879413   0.514669  -1.137528  -7.035376
     8  C    1.149734  15.811377  -0.753683  -5.744407   3.498458  -5.800871
     9  C   -4.879413  -0.753683  19.362678  -4.397217  -3.283781   0.779028
    10  C    0.514669  -5.744407  -4.397217  18.485200  -0.283744  -1.843741
    11  C   -1.137528   3.498458  -3.283781  -0.283744  16.294065  -7.150623
    12  C   -7.035376  -5.800871   0.779028  -1.843741  -7.150623  27.549048
    13  H   -0.004182   0.023993  -0.016971  -0.007219   0.012577   0.011365
    14  H    0.000763  -0.001866  -0.000653   0.000029  -0.000141  -0.000966
    15  H   -0.017811  -0.014059  -0.013157   0.006599  -0.000681   0.027680
    16  H    0.047436   0.349935  -0.066434   0.043162  -0.027613   0.002594
    17  H    0.091450  -0.032930   0.051143  -0.002635   0.246927  -0.017087
    18  Cl  -0.336047  -0.103528   0.385120  -0.484148  -0.794643   0.259241
    19  Cl  -0.045126   0.012018   0.002155   0.004782   0.015228  -0.015119
    20  Cl   0.131053   0.083074  -0.182805  -0.342406   0.113481  -0.425076
    21  Cl   0.025661   0.018146   0.009693  -0.001296  -0.005903  -0.034965
    22  Cl  -0.830338  -0.055078  -0.311715  -0.100473   0.114011   0.433712
              13         14         15         16         17         18
     1  C    0.036588   0.002845   0.068148  -0.037644   0.011120   0.056418
     2  C    0.322634  -0.012499   0.062451   0.094912   0.001743  -0.355263
     3  C   -0.033127   0.295415  -0.026399   0.002240  -0.000285  -0.054549
     4  C   -0.003214   0.055110   0.031482   0.004249   0.000082  -0.081064
     5  C   -0.017588   0.050038  -0.054067  -0.006235  -0.000739   0.040127
     6  C    0.026525  -0.037271   0.290090  -0.061893  -0.003080   0.425853
     7  C   -0.004182   0.000763  -0.017811   0.047436   0.091450  -0.336047
     8  C    0.023993  -0.001866  -0.014059   0.349935  -0.032930  -0.103528
     9  C   -0.016971  -0.000653  -0.013157  -0.066434   0.051143   0.385120
    10  C   -0.007219   0.000029   0.006599   0.043162  -0.002635  -0.484148
    11  C    0.012577  -0.000141  -0.000681  -0.027613   0.246927  -0.794643
    12  C    0.011365  -0.000966   0.027680   0.002594  -0.017087   0.259241
    13  H    0.521944  -0.007046  -0.000201  -0.000762   0.000002  -0.001944
    14  H   -0.007046   0.507729   0.000055   0.000042   0.000000  -0.000274
    15  H   -0.000201   0.000055   0.495556   0.000053   0.000023  -0.010708
    16  H   -0.000762   0.000042   0.000053   0.502075   0.000039   0.000163
    17  H    0.000002   0.000000   0.000023   0.000039   0.488915  -0.004978
    18  Cl  -0.001944  -0.000274  -0.010708   0.000163  -0.004978  17.683891
    19  Cl   0.000299   0.000231  -0.002450  -0.000170  -0.000021   0.010641
    20  Cl  -0.000012  -0.000001  -0.000055   0.000486  -0.006044  -0.036544
    21  Cl  -0.000295  -0.007409  -0.000180  -0.000123  -0.000001   0.006562
    22  Cl   0.000563  -0.000005  -0.000203  -0.003536   0.000285  -0.002052
              19         20         21         22
     1  C   -0.614112   0.016028   0.004492  -0.056300
     2  C    0.190881   0.006415   0.129088   0.053377
     3  C    0.278004   0.001994   0.096461   0.026861
     4  C   -0.180097  -0.000211  -1.064834   0.004236
     5  C   -0.801666   0.001633   0.260894  -0.009918
     6  C    0.360729  -0.002915  -0.076682  -0.044126
     7  C   -0.045126   0.131053   0.025661  -0.830338
     8  C    0.012018   0.083074   0.018146  -0.055078
     9  C    0.002155  -0.182805   0.009693  -0.311715
    10  C    0.004782  -0.342406  -0.001296  -0.100473
    11  C    0.015228   0.113481  -0.005903   0.114011
    12  C   -0.015119  -0.425076  -0.034965   0.433712
    13  H    0.000299  -0.000012  -0.000295   0.000563
    14  H    0.000231  -0.000001  -0.007409  -0.000005
    15  H   -0.002450  -0.000055  -0.000180  -0.000203
    16  H   -0.000170   0.000486  -0.000123  -0.003536
    17  H   -0.000021  -0.006044  -0.000001   0.000285
    18  Cl   0.010641  -0.036544   0.006562  -0.002052
    19  Cl  17.380906   0.000095  -0.124305  -0.000023
    20  Cl   0.000095  17.314437   0.000014  -0.160112
    21  Cl  -0.124305   0.000014  17.290979   0.000138
    22  Cl  -0.000023  -0.160112   0.000138  17.409127
 Mulliken charges:
               1
     1  C    1.056664
     2  C   -0.425120
     3  C   -0.838589
     4  C    0.039106
     5  C   -0.094776
     6  C   -1.186967
     7  C    0.063100
     8  C   -1.031184
     9  C    0.090716
    10  C    0.076137
    11  C   -0.935038
    12  C   -0.014674
    13  H    0.136071
    14  H    0.155875
    15  H    0.157837
    16  H    0.157024
    17  H    0.176072
    18  Cl   0.397724
    19  Cl   0.527119
    20  Cl   0.487471
    21  Cl   0.473865
    22  Cl   0.531567
 Sum of Mulliken charges =  -0.00000
 Mulliken charges with hydrogens summed into heavy atoms:
               1
     1  C    1.056664
     2  C   -0.289049
     3  C   -0.682714
     4  C    0.039106
     5  C   -0.094776
     6  C   -1.029129
     7  C    0.063100
     8  C   -0.874161
     9  C    0.090716
    10  C    0.076137
    11  C   -0.758966
    12  C   -0.014674
    18  Cl   0.397724
    19  Cl   0.527119
    20  Cl   0.487471
    21  Cl   0.473865
    22  Cl   0.531567
 Electronic spatial extent (au):  <R**2>=           8607.0346
 Charge=             -0.0000 electrons
 Dipole moment (field-independent basis, Debye):
    X=              0.7215    Y=             -0.6940    Z=             -0.8302  Tot=              1.3005
 Quadrupole moment (field-independent basis, Debye-Ang):
   XX=           -145.9254   YY=           -129.4103   ZZ=           -132.1370
   XY=              4.4355   XZ=              1.3326   YZ=              3.3543
 Traceless Quadrupole moment (field-independent basis, Debye-Ang):
   XX=            -10.1012   YY=              6.4139   ZZ=              3.6872
   XY=              4.4355   XZ=              1.3326   YZ=              3.3543
 Octapole moment (field-independent basis, Debye-Ang**2):
  XXX=             17.4055  YYY=              1.9469  ZZZ=              3.1256  XYY=              2.0049
  XXY=             13.4177  XXZ=             -7.1656  XZZ=             -4.6598  YZZ=             -3.0299
  YYZ=             -3.3728  XYZ=             -8.1354
 Hexadecapole moment (field-independent basis, Debye-Ang**3):
 XXXX=          -9158.4318 YYYY=          -1679.5643 ZZZZ=           -598.9989 XXXY=             26.1290
 XXXZ=              2.1845 YYYX=            -22.2160 YYYZ=             -2.8502 ZZZX=             -5.8507
 ZZZY=             13.7569 XXYY=          -1752.9919 XXZZ=          -1609.5240 YYZZ=           -370.9130
 XXYZ=             11.1862 YYXZ=             10.5306 ZZXY=             -4.0688
 N-N= 1.661774177778D+03 E-N=-9.860037541431D+03  KE= 2.754122770649D+03
 1\1\GINC-CN149\FOpt\RB3LYP\6-311+G(d,p)\C12H5Cl5\20CY91R06\01-Apr-2022
 \0\\# opt b3lyp/6-311+g(d,p) scf=xqc\\Title Card Required\\0,1\C,-0.76
 74970258,-0.3464545237,-0.0703115149\C,-1.2527154046,-1.5022013374,-0.
 6924776576\C,-2.6118798028,-1.7903785,-0.6910454267\C,-3.5124173161,-0
 .933517071,-0.0626154871\C,-3.0371271908,0.2209096984,0.5678790946\C,-
 1.6753104612,0.5086273902,0.5592310101\C,0.6943075963,-0.0676988484,-0
 .0445044471\C,1.5544226899,-1.0250958515,0.5058042603\C,2.9315271094,-
 0.8384938759,0.5614680504\C,3.4869387022,0.3392195597,0.054815323\C,2.
 6549838123,1.3043370888,-0.5043788669\C,1.2806572819,1.1014551303,-0.5
 524287891\H,-0.5671662314,-2.173397879,-1.19603157\H,-2.9860763867,-2.
 6798315757,-1.1814681215\H,-1.3302576673,1.4036034907,1.0595033786\H,1
 .1355398937,-1.93363088,0.9191201425\H,3.0838439211,2.2098716591,-0.91
 06766205\Cl,0.310936021,2.3449628708,-1.3236031527\Cl,-4.1187494483,1.
 3241128411,1.3826286282\Cl,5.2041625389,0.6362843362,0.096688673\Cl,-5
 .2118614961,-1.3310258302,-0.0819165981\Cl,3.9227838644,-2.0850168925,
 1.2741456915\\Version=EM64L-G16RevB.01\State=1-A\HF=-2761.5189579\RMSD
 =2.765e-09\RMSF=1.162e-05\Dipole=0.2906703,-0.337781,-0.251435\Quadrup
 ole=-7.6371929,5.9386831,1.6985098,3.1792198,0.1288902,1.7432827\PG=C0
 1 [X(C12H5Cl5)]\\@


 We find comfort among those who agree with us -- growth among those who don't.
 -- Frank A. Clark
 Job cpu time:       0 days  4 hours  1 minutes 23.7 seconds.
 Elapsed time:       0 days  0 hours 15 minutes  8.4 seconds.
 File lengths (MBytes):  RWF=    122 Int=      0 D2E=      0 Chk=     19 Scr=      1
 Normal termination of Gaussian 16 at Fri Apr  1 22:54:21 2022.
