 Entering Gaussian System, Link 0=g16
 Input=2,3prime,4prime,6-Tetrachlorobiphenyl.gjf
 Output=2,3prime,4prime,6-Tetrachlorobiphenyl.log
 Initial command:
 /opt/g16/l1.exe "/scratch/gour/Gau-24162.inp" -scrdir="/scratch/gour/"
 Entering Link 1 = /opt/g16/l1.exe PID=     24163.
  
 Copyright (c) 1988-2017, Gaussian, Inc.  All Rights Reserved.
  
 This is part of the Gaussian(R) 16 program.  It is based on
 the Gaussian(R) 09 system (copyright 2009, Gaussian, Inc.),
 the Gaussian(R) 03 system (copyright 2003, Gaussian, Inc.),
 the Gaussian(R) 98 system (copyright 1998, Gaussian, Inc.),
 the Gaussian(R) 94 system (copyright 1995, Gaussian, Inc.),
 the Gaussian 92(TM) system (copyright 1992, Gaussian, Inc.),
 the Gaussian 90(TM) system (copyright 1990, Gaussian, Inc.),
 the Gaussian 88(TM) system (copyright 1988, Gaussian, Inc.),
 the Gaussian 86(TM) system (copyright 1986, Carnegie Mellon
 University), and the Gaussian 82(TM) system (copyright 1983,
 Carnegie Mellon University). Gaussian is a federally registered
 trademark of Gaussian, Inc.
  
 This software contains proprietary and confidential information,
 including trade secrets, belonging to Gaussian, Inc.
  
 This software is provided under written license and may be
 used, copied, transmitted, or stored only in accord with that
 written license.
  
 The following legend is applicable only to US Government
 contracts under FAR:
  
                    RESTRICTED RIGHTS LEGEND
  
 Use, reproduction and disclosure by the US Government is
 subject to restrictions as set forth in subparagraphs (a)
 and (c) of the Commercial Computer Software - Restricted
 Rights clause in FAR 52.227-19.
  
 Gaussian, Inc.
 340 Quinnipiac St., Bldg. 40, Wallingford CT 06492
  
  
 ---------------------------------------------------------------
 Warning -- This program may not be used in any manner that
 competes with the business of Gaussian, Inc. or will provide
 assistance to any competitor of Gaussian, Inc.  The licensee
 of this program is prohibited from giving any competitor of
 Gaussian, Inc. access to this program.  By using this program,
 the user acknowledges that Gaussian, Inc. is engaged in the
 business of creating and licensing software in the field of
 computational chemistry and represents and warrants to the
 licensee that it is not a competitor of Gaussian, Inc. and that
 it will not use this program in any manner prohibited above.
 ---------------------------------------------------------------
  

 Cite this work as:
 Gaussian 16, Revision B.01,
 M. J. Frisch, G. W. Trucks, H. B. Schlegel, G. E. Scuseria, 
 M. A. Robb, J. R. Cheeseman, G. Scalmani, V. Barone, 
 G. A. Petersson, H. Nakatsuji, X. Li, M. Caricato, A. V. Marenich, 
 J. Bloino, B. G. Janesko, R. Gomperts, B. Mennucci, H. P. Hratchian, 
 J. V. Ortiz, A. F. Izmaylov, J. L. Sonnenberg, D. Williams-Young, 
 F. Ding, F. Lipparini, F. Egidi, J. Goings, B. Peng, A. Petrone, 
 T. Henderson, D. Ranasinghe, V. G. Zakrzewski, J. Gao, N. Rega, 
 G. Zheng, W. Liang, M. Hada, M. Ehara, K. Toyota, R. Fukuda, 
 J. Hasegawa, M. Ishida, T. Nakajima, Y. Honda, O. Kitao, H. Nakai, 
 T. Vreven, K. Throssell, J. A. Montgomery, Jr., J. E. Peralta, 
 F. Ogliaro, M. J. Bearpark, J. J. Heyd, E. N. Brothers, K. N. Kudin, 
 V. N. Staroverov, T. A. Keith, R. Kobayashi, J. Normand, 
 K. Raghavachari, A. P. Rendell, J. C. Burant, S. S. Iyengar, 
 J. Tomasi, M. Cossi, J. M. Millam, M. Klene, C. Adamo, R. Cammi, 
 J. W. Ochterski, R. L. Martin, K. Morokuma, O. Farkas, 
 J. B. Foresman, and D. J. Fox, Gaussian, Inc., Wallingford CT, 2016.
 
 ******************************************
 Gaussian 16:  EM64L-G16RevB.01 20-Dec-2017
                15-Mar-2022 
 ******************************************
 %mem=10GB
 %nprocshared=4
 Will use up to    4 processors via shared memory.
 --------------------------------
 # opt b3lyp/6-311+g(d,p) scf=xqc
 --------------------------------
 1/18=20,19=15,26=3,38=1/1,3;
 2/9=110,12=2,17=6,18=5,40=1/2;
 3/5=4,6=6,7=111,11=2,25=1,30=1,71=1,74=-5/1,2,3;
 4//1;
 5/5=2,8=3,13=1,38=5/2,8;
 6/7=2,8=2,9=2,10=2,28=1/1;
 7//1,2,3,16;
 1/18=20,19=15,26=3/3(2);
 2/9=110/2;
 99//99;
 2/9=110/2;
 3/5=4,6=6,7=111,11=2,25=1,30=1,71=1,74=-5/1,2,3;
 4/5=5,16=3,69=1/1;
 5/5=2,8=3,13=1,38=5/2,8;
 7//1,2,3,16;
 1/18=20,19=15,26=3/3(-5);
 2/9=110/2;
 6/7=2,8=2,9=2,10=2,19=2,28=1/1;
 99/9=1/99;
 -------------------
 Title Card Required
 -------------------
 Symbolic Z-matrix:
 Charge =  0 Multiplicity = 1
 C                     0.83766   0.5097   -0.00285 
 C                     2.17004   0.53959  -0.4362 
 C                     2.87794   1.74904  -0.44227 
 C                     2.25345   2.92861  -0.015 
 C                     0.92107   2.89872   0.41835 
 C                     0.21317   1.68927   0.42442 
 C                     0.05976  -0.81936   0.00382 
 C                     0.68424  -1.99893  -0.42345 
 C                    -0.02365  -3.20838  -0.41738 
 C                    -1.35603  -3.23827   0.01597 
 C                    -1.98052  -2.0587    0.44325 
 C                    -1.27262  -0.84925   0.43717 
 H                     2.64685  -0.36103  -0.76243 
 H                     3.89524   1.77186  -0.77314 
 H                    -0.80413   1.66645   0.75529 
 H                     0.45316  -4.109    -0.74361 
 H                    -1.89652  -4.16171   0.02061 
 H                    -2.99782  -2.08152   0.77412 
 Cl                   -2.05691   0.63215   0.97378 
 Cl                    0.13678   4.38012   0.95496 
 Cl                    3.14248   4.44754  -0.02262 
 Cl                    2.35756  -1.96139  -0.96769 
 

 GradGradGradGradGradGradGradGradGradGradGradGradGradGradGradGradGradGrad
 Berny optimization.
 Initialization pass.
                           ----------------------------
                           !    Initial Parameters    !
                           ! (Angstroms and Degrees)  !
 --------------------------                            --------------------------
 ! Name  Definition              Value          Derivative Info.                !
 --------------------------------------------------------------------------------
 ! R1    R(1,2)                  1.4014         estimate D2E/DX2                !
 ! R2    R(1,6)                  1.4014         estimate D2E/DX2                !
 ! R3    R(1,7)                  1.54           estimate D2E/DX2                !
 ! R4    R(2,3)                  1.4014         estimate D2E/DX2                !
 ! R5    R(2,13)                 1.07           estimate D2E/DX2                !
 ! R6    R(3,4)                  1.4014         estimate D2E/DX2                !
 ! R7    R(3,14)                 1.07           estimate D2E/DX2                !
 ! R8    R(4,5)                  1.4014         estimate D2E/DX2                !
 ! R9    R(4,21)                 1.76           estimate D2E/DX2                !
 ! R10   R(5,6)                  1.4014         estimate D2E/DX2                !
 ! R11   R(5,20)                 1.76           estimate D2E/DX2                !
 ! R12   R(6,15)                 1.07           estimate D2E/DX2                !
 ! R13   R(7,8)                  1.4014         estimate D2E/DX2                !
 ! R14   R(7,12)                 1.4014         estimate D2E/DX2                !
 ! R15   R(8,9)                  1.4014         estimate D2E/DX2                !
 ! R16   R(8,22)                 1.76           estimate D2E/DX2                !
 ! R17   R(9,10)                 1.4014         estimate D2E/DX2                !
 ! R18   R(9,16)                 1.07           estimate D2E/DX2                !
 ! R19   R(10,11)                1.4014         estimate D2E/DX2                !
 ! R20   R(10,17)                1.07           estimate D2E/DX2                !
 ! R21   R(11,12)                1.4014         estimate D2E/DX2                !
 ! R22   R(11,18)                1.07           estimate D2E/DX2                !
 ! R23   R(12,19)                1.76           estimate D2E/DX2                !
 ! A1    A(2,1,6)              120.0            estimate D2E/DX2                !
 ! A2    A(2,1,7)              120.0            estimate D2E/DX2                !
 ! A3    A(6,1,7)              120.0            estimate D2E/DX2                !
 ! A4    A(1,2,3)              120.0            estimate D2E/DX2                !
 ! A5    A(1,2,13)             120.0            estimate D2E/DX2                !
 ! A6    A(3,2,13)             120.0            estimate D2E/DX2                !
 ! A7    A(2,3,4)              120.0            estimate D2E/DX2                !
 ! A8    A(2,3,14)             120.0            estimate D2E/DX2                !
 ! A9    A(4,3,14)             120.0            estimate D2E/DX2                !
 ! A10   A(3,4,5)              120.0            estimate D2E/DX2                !
 ! A11   A(3,4,21)             120.0            estimate D2E/DX2                !
 ! A12   A(5,4,21)             120.0            estimate D2E/DX2                !
 ! A13   A(4,5,6)              120.0            estimate D2E/DX2                !
 ! A14   A(4,5,20)             120.0            estimate D2E/DX2                !
 ! A15   A(6,5,20)             120.0            estimate D2E/DX2                !
 ! A16   A(1,6,5)              120.0            estimate D2E/DX2                !
 ! A17   A(1,6,15)             120.0            estimate D2E/DX2                !
 ! A18   A(5,6,15)             120.0            estimate D2E/DX2                !
 ! A19   A(1,7,8)              120.0            estimate D2E/DX2                !
 ! A20   A(1,7,12)             120.0            estimate D2E/DX2                !
 ! A21   A(8,7,12)             120.0            estimate D2E/DX2                !
 ! A22   A(7,8,9)              120.0            estimate D2E/DX2                !
 ! A23   A(7,8,22)             120.0            estimate D2E/DX2                !
 ! A24   A(9,8,22)             120.0            estimate D2E/DX2                !
 ! A25   A(8,9,10)             120.0            estimate D2E/DX2                !
 ! A26   A(8,9,16)             120.0            estimate D2E/DX2                !
 ! A27   A(10,9,16)            120.0            estimate D2E/DX2                !
 ! A28   A(9,10,11)            120.0            estimate D2E/DX2                !
 ! A29   A(9,10,17)            120.0            estimate D2E/DX2                !
 ! A30   A(11,10,17)           120.0            estimate D2E/DX2                !
 ! A31   A(10,11,12)           120.0            estimate D2E/DX2                !
 ! A32   A(10,11,18)           120.0            estimate D2E/DX2                !
 ! A33   A(12,11,18)           120.0            estimate D2E/DX2                !
 ! A34   A(7,12,11)            120.0            estimate D2E/DX2                !
 ! A35   A(7,12,19)            120.0            estimate D2E/DX2                !
 ! A36   A(11,12,19)           120.0            estimate D2E/DX2                !
 ! D1    D(6,1,2,3)              0.0001         estimate D2E/DX2                !
 ! D2    D(6,1,2,13)           180.0            estimate D2E/DX2                !
 ! D3    D(7,1,2,3)           -180.0            estimate D2E/DX2                !
 ! D4    D(7,1,2,13)            -0.0001         estimate D2E/DX2                !
 ! D5    D(2,1,6,5)             -0.0001         estimate D2E/DX2                !
 ! D6    D(2,1,6,15)           180.0            estimate D2E/DX2                !
 ! D7    D(7,1,6,5)            180.0            estimate D2E/DX2                !
 ! D8    D(7,1,6,15)             0.0            estimate D2E/DX2                !
 ! D9    D(2,1,7,8)             -0.0001         estimate D2E/DX2                !
 ! D10   D(2,1,7,12)           179.9998         estimate D2E/DX2                !
 ! D11   D(6,1,7,8)            179.9999         estimate D2E/DX2                !
 ! D12   D(6,1,7,12)            -0.0002         estimate D2E/DX2                !
 ! D13   D(1,2,3,4)              0.0            estimate D2E/DX2                !
 ! D14   D(1,2,3,14)           180.0            estimate D2E/DX2                !
 ! D15   D(13,2,3,4)          -179.9999         estimate D2E/DX2                !
 ! D16   D(13,2,3,14)            0.0001         estimate D2E/DX2                !
 ! D17   D(2,3,4,5)             -0.0001         estimate D2E/DX2                !
 ! D18   D(2,3,4,21)           180.0            estimate D2E/DX2                !
 ! D19   D(14,3,4,5)           179.9999         estimate D2E/DX2                !
 ! D20   D(14,3,4,21)            0.0            estimate D2E/DX2                !
 ! D21   D(3,4,5,6)              0.0001         estimate D2E/DX2                !
 ! D22   D(3,4,5,20)          -179.9999         estimate D2E/DX2                !
 ! D23   D(21,4,5,6)          -180.0            estimate D2E/DX2                !
 ! D24   D(21,4,5,20)            0.0            estimate D2E/DX2                !
 ! D25   D(4,5,6,1)              0.0            estimate D2E/DX2                !
 ! D26   D(4,5,6,15)           179.9999         estimate D2E/DX2                !
 ! D27   D(20,5,6,1)           180.0            estimate D2E/DX2                !
 ! D28   D(20,5,6,15)           -0.0001         estimate D2E/DX2                !
 ! D29   D(1,7,8,9)            179.9999         estimate D2E/DX2                !
 ! D30   D(1,7,8,22)             0.0001         estimate D2E/DX2                !
 ! D31   D(12,7,8,9)             0.0001         estimate D2E/DX2                !
 ! D32   D(12,7,8,22)         -179.9998         estimate D2E/DX2                !
 ! D33   D(1,7,12,11)         -179.9999         estimate D2E/DX2                !
 ! D34   D(1,7,12,19)            0.0            estimate D2E/DX2                !
 ! D35   D(8,7,12,11)           -0.0001         estimate D2E/DX2                !
 ! D36   D(8,7,12,19)          179.9999         estimate D2E/DX2                !
 ! D37   D(7,8,9,10)             0.0            estimate D2E/DX2                !
 ! D38   D(7,8,9,16)           180.0            estimate D2E/DX2                !
 ! D39   D(22,8,9,10)          179.9998         estimate D2E/DX2                !
 ! D40   D(22,8,9,16)           -0.0002         estimate D2E/DX2                !
 ! D41   D(8,9,10,11)            0.0            estimate D2E/DX2                !
 ! D42   D(8,9,10,17)         -179.9999         estimate D2E/DX2                !
 ! D43   D(16,9,10,11)         180.0            estimate D2E/DX2                !
 ! D44   D(16,9,10,17)           0.0001         estimate D2E/DX2                !
 ! D45   D(9,10,11,12)           0.0            estimate D2E/DX2                !
 ! D46   D(9,10,11,18)        -179.9998         estimate D2E/DX2                !
 ! D47   D(17,10,11,12)        179.9999         estimate D2E/DX2                !
 ! D48   D(17,10,11,18)          0.0001         estimate D2E/DX2                !
 ! D49   D(10,11,12,7)           0.0            estimate D2E/DX2                !
 ! D50   D(10,11,12,19)       -179.9999         estimate D2E/DX2                !
 ! D51   D(18,11,12,7)         179.9999         estimate D2E/DX2                !
 ! D52   D(18,11,12,19)         -0.0001         estimate D2E/DX2                !
 --------------------------------------------------------------------------------
 Trust Radius=3.00D-01 FncErr=1.00D-07 GrdErr=1.00D-06 EigMax=2.50D+02 EigMin=1.00D-04
 Number of steps in this run=    121 maximum allowed number of steps=    132.
 GradGradGradGradGradGradGradGradGradGradGradGradGradGradGradGradGradGrad

                          Input orientation:                          
 ---------------------------------------------------------------------
 Center     Atomic      Atomic             Coordinates (Angstroms)
 Number     Number       Type             X           Y           Z
 ---------------------------------------------------------------------
      1          6           0        0.837662    0.509705   -0.002851
      2          6           0        2.170043    0.539591   -0.436198
      3          6           0        2.877937    1.749042   -0.442270
      4          6           0        2.253449    2.928607   -0.014995
      5          6           0        0.921068    2.898721    0.418350
      6          6           0        0.213174    1.689270    0.424422
      7          6           0        0.059757   -0.819362    0.003823
      8          6           0        0.684245   -1.998928   -0.423452
      9          6           0       -0.023648   -3.208379   -0.417378
     10          6           0       -1.356029   -3.238265    0.015972
     11          6           0       -1.980516   -2.058700    0.443247
     12          6           0       -1.272623   -0.849249    0.437173
     13          1           0        2.646854   -0.361034   -0.762430
     14          1           0        3.895239    1.771860   -0.773139
     15          1           0       -0.804129    1.666452    0.755291
     16          1           0        0.453161   -4.109003   -0.743612
     17          1           0       -1.896520   -4.161709    0.020611
     18          1           0       -2.997817   -2.081520    0.774122
     19         17           0       -2.056907    0.632151    0.973785
     20         17           0        0.136781    4.380122    0.954955
     21         17           0        3.142484    4.447540   -0.022621
     22         17           0        2.357565   -1.961394   -0.967686
 ---------------------------------------------------------------------
                    Distance matrix (angstroms):
                    1          2          3          4          5
     1  C    0.000000
     2  C    1.401400   0.000000
     3  C    2.427296   1.401400   0.000000
     4  C    2.802800   2.427296   1.401400   0.000000
     5  C    2.427296   2.802800   2.427296   1.401400   0.000000
     6  C    1.401400   2.427296   2.802800   2.427296   1.401400
     7  C    1.540000   2.548270   3.838989   4.342800   3.838989
     8  C    2.548270   2.941400   4.342800   5.187469   4.975106
     9  C    3.838989   4.342800   5.744200   6.558176   6.235992
    10  C    4.342800   5.187469   6.558176   7.145600   6.558176
    11  C    3.838989   4.975106   6.235992   6.558176   5.744200
    12  C    2.548270   3.813607   4.975106   5.187469   4.342800
    13  H    2.146700   1.070000   2.146700   3.396345   3.872800
    14  H    3.396345   2.146700   1.070000   2.146700   3.396345
    15  H    2.146700   3.396345   3.872800   3.396345   2.146700
    16  H    4.693509   4.965039   6.347206   7.300676   7.118798
    17  H    5.412800   6.232802   7.612271   8.215600   7.612271
    18  H    4.693509   5.919617   7.118798   7.300676   6.347206
    19  Cl   3.057342   4.456874   5.254079   4.983028   3.783409
    20  Cl   4.048303   4.562800   4.048303   2.743718   1.760000
    21  Cl   4.562800   4.048303   2.743718   1.760000   2.743718
    22  Cl   3.057342   2.563702   3.783409   4.983028   5.254079
                    6          7          8          9         10
     6  C    0.000000
     7  C    2.548270   0.000000
     8  C    3.813607   1.401400   0.000000
     9  C    4.975106   2.427296   1.401400   0.000000
    10  C    5.187469   2.802800   2.427296   1.401400   0.000000
    11  C    4.342800   2.427296   2.802800   2.427296   1.401400
    12  C    2.941400   1.401400   2.427296   2.802800   2.427296
    13  H    3.396345   2.736837   2.578650   3.918930   4.990735
    14  H    3.872800   4.693509   4.965039   6.347206   7.300676
    15  H    1.070000   2.736837   4.127917   5.074276   4.990735
    16  H    5.919617   3.396345   2.146700   1.070000   2.146700
    17  H    6.232802   3.872800   3.396345   2.146700   1.070000
    18  H    4.965039   3.396345   3.872800   3.396345   2.146700
    19  Cl   2.563702   2.743718   4.048303   4.562800   4.048303
    20  Cl   2.743718   5.286324   6.549198   7.713260   7.819846
    21  Cl   4.048303   6.102800   6.910901   8.294174   8.905600
    22  Cl   4.456874   2.743718   1.760000   2.743718   4.048303
                   11         12         13         14         15
    11  C    0.000000
    12  C    1.401400   0.000000
    13  H    5.074276   4.127917   0.000000
    14  H    7.118798   5.919617   2.471400   0.000000
    15  H    3.918930   2.578650   4.280590   4.942800   0.000000
    16  H    3.396345   3.872800   4.342800   6.814200   6.097816
    17  H    2.146700   3.396345   5.974992   8.329571   5.974992
    18  H    1.070000   2.146700   6.097816   8.047159   4.342800
    19  Cl   2.743718   1.760000   5.111382   6.307038   1.639199
    20  Cl   6.797295   5.440665   5.632800   4.890332   2.879094
    21  Cl   8.294174   6.910901   4.890332   2.879094   4.890332
    22  Cl   4.562800   4.048303   1.639199   4.042212   5.111382
                   16         17         18         19         20
    16  H    0.000000
    17  H    2.471400   0.000000
    18  H    4.280590   2.471400   0.000000
    19  Cl   5.632800   4.890332   2.879094   0.000000
    20  Cl   8.663168   8.830073   7.184095   4.342800   0.000000
    21  Cl   8.998151   9.975600   8.998151   6.525618   3.161400
    22  Cl   2.879094   4.890332   5.632800   5.475705   6.988795
                   21         22
    21  Cl   0.000000
    22  Cl   6.525618   0.000000
 Stoichiometry    C12H6Cl4
 Framework group  C1[X(C12H6Cl4)]
 Deg. of freedom    60
 Full point group                 C1      NOp   1
 Largest Abelian subgroup         C1      NOp   1
 Largest concise Abelian subgroup C1      NOp   1
                         Standard orientation:                         
 ---------------------------------------------------------------------
 Center     Atomic      Atomic             Coordinates (Angstroms)
 Number     Number       Type             X           Y           Z
 ---------------------------------------------------------------------
      1          6           0        0.164564   -0.277612    0.000001
      2          6           0       -0.288992   -1.603586    0.000000
      3          6           0       -1.664098   -1.873782   -0.000001
      4          6           0       -2.585647   -0.818004   -0.000002
      5          6           0       -2.132091    0.507971    0.000002
      6          6           0       -0.756985    0.778167    0.000003
      7          6           0        1.675670    0.019307    0.000002
      8          6           0        2.597219   -1.036471    0.000003
      9          6           0        3.972325   -0.766275    0.000002
     10          6           0        4.425881    0.559699   -0.000000
     11          6           0        3.504332    1.615478   -0.000001
     12          6           0        2.129226    1.345282   -0.000001
     13          1           0        0.414632   -2.409696   -0.000001
     14          1           0       -2.010398   -2.886193   -0.000003
     15          1           0       -0.410685    1.790578    0.000005
     16          1           0        4.675949   -1.572386    0.000002
     17          1           0        5.475805    0.766000   -0.000003
     18          1           0        3.850632    2.627889   -0.000006
     19         17           0        0.971864    2.671220   -0.000004
     20         17           0       -3.289453    1.833909    0.000005
     21         17           0       -4.312625   -1.157339   -0.000004
     22         17           0        2.027604   -2.701746    0.000001
 ---------------------------------------------------------------------
 Rotational constants (GHZ):           0.5838464           0.2304054           0.1652086
 Standard basis: 6-311+G(d,p) (5D, 7F)
 There are   436 symmetry adapted cartesian basis functions of A   symmetry.
 There are   420 symmetry adapted basis functions of A   symmetry.
   420 basis functions,   692 primitive gaussians,   436 cartesian basis functions
    73 alpha electrons       73 beta electrons
       nuclear repulsion energy      1474.2815092006 Hartrees.
 NAtoms=   22 NActive=   22 NUniq=   22 SFac= 1.00D+00 NAtFMM=   60 NAOKFM=F Big=F
 Integral buffers will be    131072 words long.
 Raffenetti 2 integral format.
 Two-electron integral symmetry is turned on.
 One-electron integrals computed using PRISM.
 NBasis=   420 RedAO= T EigKep=  1.81D-06  NBF=   420
 NBsUse=   414 1.00D-06 EigRej=  8.87D-07 NBFU=   414
 ExpMin= 4.38D-02 ExpMax= 1.06D+05 ExpMxC= 3.62D+03 IAcc=3 IRadAn=         5 AccDes= 0.00D+00
 Harris functional with IExCor=  402 and IRadAn=       5 diagonalized for initial guess.
 HarFok:  IExCor=  402 AccDes= 0.00D+00 IRadAn=         5 IDoV= 1 UseB2=F ITyADJ=14
 ICtDFT=  3500011 ScaDFX=  1.000000  1.000000  1.000000  1.000000
 FoFCou: FMM=F IPFlag=           0 FMFlag=      100000 FMFlg1=           0
         NFxFlg=           0 DoJE=T BraDBF=F KetDBF=T FulRan=T
         wScrn=  0.000000 ICntrl=       500 IOpCl=  0 I1Cent=   200000004 NGrid=           0
         NMat0=    1 NMatS0=      1 NMatT0=    0 NMatD0=    1 NMtDS0=    0 NMtDT0=    0
 Petite list used in FoFCou.
 Requested convergence on RMS density matrix=1.00D-08 within  32 cycles.
 Requested convergence on MAX density matrix=1.00D-06.
 Requested convergence on             energy=1.00D-06.
 No special actions if energy rises.
 SCF Done:  E(RB3LYP) =  -2301.78433375     A.U. after   16 cycles
            NFock= 16  Conv=0.49D-08     -V/T= 2.0025
 QCSCF skips out because SCF is already converged.

 **********************************************************************

            Population analysis using the SCF Density.

 **********************************************************************

 Orbital symmetries:
       Occupied  (A) (A) (A) (A) (A) (A) (A) (A) (A) (A) (A) (A)
                 (A) (A) (A) (A) (A) (A) (A) (A) (A) (A) (A) (A)
                 (A) (A) (A) (A) (A) (A) (A) (A) (A) (A) (A) (A)
                 (A) (A) (A) (A) (A) (A) (A) (A) (A) (A) (A) (A)
                 (A) (A) (A) (A) (A) (A) (A) (A) (A) (A) (A) (A)
                 (A) (A) (A) (A) (A) (A) (A) (A) (A) (A) (A) (A)
                 (A)
       Virtual   (A) (A) (A) (A) (A) (A) (A) (A) (A) (A) (A) (A)
                 (A) (A) (A) (A) (A) (A) (A) (A) (A) (A) (A) (A)
                 (A) (A) (A) (A) (A) (A) (A) (A) (A) (A) (A) (A)
                 (A) (A) (A) (A) (A) (A) (A) (A) (A) (A) (A) (A)
                 (A) (A) (A) (A) (A) (A) (A) (A) (A) (A) (A) (A)
                 (A) (A) (A) (A) (A) (A) (A) (A) (A) (A) (A) (A)
                 (A) (A) (A) (A) (A) (A) (A) (A) (A) (A) (A) (A)
                 (A) (A) (A) (A) (A) (A) (A) (A) (A) (A) (A) (A)
                 (A) (A) (A) (A) (A) (A) (A) (A) (A) (A) (A) (A)
                 (A) (A) (A) (A) (A) (A) (A) (A) (A) (A) (A) (A)
                 (A) (A) (A) (A) (A) (A) (A) (A) (A) (A) (A) (A)
                 (A) (A) (A) (A) (A) (A) (A) (A) (A) (A) (A) (A)
                 (A) (A) (A) (A) (A) (A) (A) (A) (A) (A) (A) (A)
                 (A) (A) (A) (A) (A) (A) (A) (A) (A) (A) (A) (A)
                 (A) (A) (A) (A) (A) (A) (A) (A) (A) (A) (A) (A)
                 (A) (A) (A) (A) (A) (A) (A) (A) (A) (A) (A) (A)
                 (A) (A) (A) (A) (A) (A) (A) (A) (A) (A) (A) (A)
                 (A) (A) (A) (A) (A) (A) (A) (A) (A) (A) (A) (A)
                 (A) (A) (A) (A) (A) (A) (A) (A) (A) (A) (A) (A)
                 (A) (A) (A) (A) (A) (A) (A) (A) (A) (A) (A) (A)
                 (A) (A) (A) (A) (A) (A) (A) (A) (A) (A) (A) (A)
                 (A) (A) (A) (A) (A) (A) (A) (A) (A) (A) (A) (A)
                 (A) (A) (A) (A) (A) (A) (A) (A) (A) (A) (A) (A)
                 (A) (A) (A) (A) (A) (A) (A) (A) (A) (A) (A) (A)
                 (A) (A) (A) (A) (A) (A) (A) (A) (A) (A) (A) (A)
                 (A) (A) (A) (A) (A) (A) (A) (A) (A) (A) (A) (A)
                 (A) (A) (A) (A) (A) (A) (A) (A) (A) (A) (A) (A)
                 (A) (A) (A) (A) (A) (A) (A) (A) (A) (A) (A) (A)
                 (A) (A) (A) (A) (A)
 The electronic state is 1-A.
 Alpha  occ. eigenvalues -- -101.57991-101.57975-101.55738-101.55702 -10.27285
 Alpha  occ. eigenvalues --  -10.27250 -10.25174 -10.24948 -10.23705 -10.21701
 Alpha  occ. eigenvalues --  -10.21683 -10.21502 -10.21408 -10.19563 -10.17969
 Alpha  occ. eigenvalues --  -10.17443  -9.49775  -9.49751  -9.47184  -9.47147
 Alpha  occ. eigenvalues --   -7.26179  -7.26156  -7.25225  -7.25209  -7.25199
 Alpha  occ. eigenvalues --   -7.25188  -7.23657  -7.23617  -7.22669  -7.22640
 Alpha  occ. eigenvalues --   -7.22617  -7.22576  -0.94477  -0.91568  -0.91277
 Alpha  occ. eigenvalues --   -0.86383  -0.85585  -0.84521  -0.79329  -0.77156
 Alpha  occ. eigenvalues --   -0.75121  -0.73634  -0.64835  -0.64326  -0.63372
 Alpha  occ. eigenvalues --   -0.61024  -0.54635  -0.54203  -0.52365  -0.49065
 Alpha  occ. eigenvalues --   -0.48921  -0.48331  -0.47979  -0.45450  -0.45296
 Alpha  occ. eigenvalues --   -0.44718  -0.41666  -0.41570  -0.40533  -0.40320
 Alpha  occ. eigenvalues --   -0.39599  -0.39182  -0.35577  -0.34685  -0.34535
 Alpha  occ. eigenvalues --   -0.33422  -0.31001  -0.29845  -0.29795  -0.28211
 Alpha  occ. eigenvalues --   -0.27928  -0.25982  -0.24637
 Alpha virt. eigenvalues --   -0.06825  -0.05674  -0.03313  -0.03248  -0.00891
 Alpha virt. eigenvalues --   -0.00831  -0.00629  -0.00129   0.01464   0.01574
 Alpha virt. eigenvalues --    0.02529   0.03357   0.04052   0.04160   0.04606
 Alpha virt. eigenvalues --    0.05412   0.06140   0.06145   0.06671   0.06925
 Alpha virt. eigenvalues --    0.07886   0.08047   0.08274   0.08457   0.09124
 Alpha virt. eigenvalues --    0.09126   0.10311   0.10691   0.11684   0.12041
 Alpha virt. eigenvalues --    0.12216   0.12299   0.12509   0.13145   0.13752
 Alpha virt. eigenvalues --    0.14039   0.14394   0.14838   0.15126   0.15355
 Alpha virt. eigenvalues --    0.15904   0.16035   0.16511   0.16646   0.17604
 Alpha virt. eigenvalues --    0.17715   0.18007   0.18720   0.19211   0.19347
 Alpha virt. eigenvalues --    0.20075   0.20120   0.20306   0.20686   0.20791
 Alpha virt. eigenvalues --    0.21087   0.21460   0.22127   0.22881   0.23204
 Alpha virt. eigenvalues --    0.23812   0.24548   0.24618   0.25032   0.25548
 Alpha virt. eigenvalues --    0.26233   0.26569   0.26832   0.27371   0.28067
 Alpha virt. eigenvalues --    0.28626   0.29298   0.30142   0.30347   0.30738
 Alpha virt. eigenvalues --    0.31721   0.32305   0.33201   0.33672   0.34171
 Alpha virt. eigenvalues --    0.34933   0.37238   0.38075   0.39254   0.41433
 Alpha virt. eigenvalues --    0.42964   0.43247   0.43795   0.44247   0.44275
 Alpha virt. eigenvalues --    0.45516   0.45581   0.47109   0.47355   0.48916
 Alpha virt. eigenvalues --    0.49481   0.49536   0.50149   0.51436   0.51668
 Alpha virt. eigenvalues --    0.51955   0.53390   0.53481   0.54131   0.55720
 Alpha virt. eigenvalues --    0.56448   0.56981   0.58809   0.59136   0.59258
 Alpha virt. eigenvalues --    0.59340   0.59634   0.61401   0.62021   0.62164
 Alpha virt. eigenvalues --    0.63737   0.64122   0.64151   0.65995   0.66821
 Alpha virt. eigenvalues --    0.67352   0.67575   0.68430   0.68616   0.69756
 Alpha virt. eigenvalues --    0.71109   0.73548   0.77285   0.77896   0.78774
 Alpha virt. eigenvalues --    0.79232   0.80710   0.81809   0.81937   0.82600
 Alpha virt. eigenvalues --    0.82844   0.84055   0.84543   0.85651   0.85658
 Alpha virt. eigenvalues --    0.85920   0.86830   0.87164   0.87678   0.87858
 Alpha virt. eigenvalues --    0.88410   0.88760   0.89397   0.91049   0.91781
 Alpha virt. eigenvalues --    0.93241   0.93269   0.93757   0.94801   0.95229
 Alpha virt. eigenvalues --    0.95433   0.95522   0.96860   0.97921   0.98325
 Alpha virt. eigenvalues --    0.99530   1.00480   1.00499   1.00876   1.01812
 Alpha virt. eigenvalues --    1.02229   1.07026   1.08007   1.08694   1.09145
 Alpha virt. eigenvalues --    1.10660   1.12114   1.12181   1.13892   1.18765
 Alpha virt. eigenvalues --    1.20635   1.22393   1.23933   1.26348   1.26934
 Alpha virt. eigenvalues --    1.28636   1.28695   1.29060   1.29935   1.30524
 Alpha virt. eigenvalues --    1.33515   1.36565   1.38187   1.41279   1.44488
 Alpha virt. eigenvalues --    1.46931   1.47631   1.49536   1.50155   1.53890
 Alpha virt. eigenvalues --    1.54875   1.55961   1.56366   1.58276   1.59158
 Alpha virt. eigenvalues --    1.59773   1.63550   1.65647   1.67047   1.68392
 Alpha virt. eigenvalues --    1.70078   1.72675   1.73018   1.74535   1.77372
 Alpha virt. eigenvalues --    1.81433   1.82884   1.83864   1.85355   1.86200
 Alpha virt. eigenvalues --    1.86989   1.88440   1.89620   1.90013   1.92703
 Alpha virt. eigenvalues --    1.93670   1.95164   1.95319   1.95520   1.96774
 Alpha virt. eigenvalues --    2.01582   2.02880   2.03634   2.03894   2.06619
 Alpha virt. eigenvalues --    2.09084   2.16274   2.17673   2.17979   2.21779
 Alpha virt. eigenvalues --    2.23604   2.25037   2.25467   2.26549   2.26750
 Alpha virt. eigenvalues --    2.27844   2.29738   2.31623   2.34595   2.35272
 Alpha virt. eigenvalues --    2.36640   2.40462   2.42626   2.44323   2.44633
 Alpha virt. eigenvalues --    2.48328   2.50480   2.51618   2.54289   2.54931
 Alpha virt. eigenvalues --    2.58616   2.60929   2.61975   2.63604   2.63719
 Alpha virt. eigenvalues --    2.65174   2.67843   2.68973   2.70898   2.72560
 Alpha virt. eigenvalues --    2.73399   2.73900   2.74656   2.75479   2.76134
 Alpha virt. eigenvalues --    2.79178   2.81024   2.81349   2.82954   2.83677
 Alpha virt. eigenvalues --    2.84950   2.86453   2.91234   2.93147   2.98398
 Alpha virt. eigenvalues --    3.04983   3.07579   3.09091   3.11332   3.13974
 Alpha virt. eigenvalues --    3.17349   3.18687   3.20065   3.24589   3.25843
 Alpha virt. eigenvalues --    3.34707   3.35152   3.38314   3.43473   3.50077
 Alpha virt. eigenvalues --    3.55329   3.58237   3.69201   3.71779   3.73921
 Alpha virt. eigenvalues --    3.89153   3.97290   4.02518   4.09033   4.12843
 Alpha virt. eigenvalues --    4.20481   4.45202   4.79493   4.84087   9.75930
 Alpha virt. eigenvalues --    9.81114   9.86281   9.87371  23.41030  23.55109
 Alpha virt. eigenvalues --   23.85081  23.85898  23.89566  23.91134  23.97542
 Alpha virt. eigenvalues --   24.01103  24.01623  24.06667  24.10807  24.14182
 Alpha virt. eigenvalues --   25.78819  25.83407  25.83589  25.88068  26.12063
 Alpha virt. eigenvalues --   26.13853  26.51214  26.58023  26.68969  26.71994
 Alpha virt. eigenvalues --   26.76507  26.85533 215.74882 215.80760 215.88565
 Alpha virt. eigenvalues --  215.89733
          Condensed to atoms (all electrons):
               1          2          3          4          5          6
     1  C   19.217278  -1.849304  -2.755140   1.845317  -2.522611   0.465820
     2  C   -1.849304  14.474420   2.106960  -1.882505   0.333880  -2.475506
     3  C   -2.755140   2.106960  12.288079   0.420085  -3.162039  -0.225316
     4  C    1.845317  -1.882505   0.420085  15.586013  -6.255063  -3.711673
     5  C   -2.522611   0.333880  -3.162039  -6.255063  18.469619   3.813669
     6  C    0.465820  -2.475506  -0.225316  -3.711673   3.813669  13.690190
     7  C    6.980766  -1.312531  -1.636639   0.460856  -2.205800  -1.279110
     8  C   -2.824904   1.647478   0.106951   0.886610  -2.508665  -3.282532
     9  C   -4.995291  -0.948530   0.526756   0.049259  -0.864524  -0.664076
    10  C   -0.657920   0.280138   0.092083  -0.002398   0.055511   0.176670
    11  C   -3.758023  -0.078345  -0.474987   0.048173   0.589078  -1.087962
    12  C   -2.092997  -2.939642  -1.256578  -0.605988  -0.056872   2.161360
    13  H   -0.322688   0.505021   0.183595   0.022489  -0.074012  -0.007033
    14  H    0.104767   0.007794   0.244170   0.018720  -0.023869  -0.018859
    15  H   -0.209391  -0.001272  -0.080285   0.059595  -0.000803   0.335577
    16  H    0.014278   0.009092   0.000322   0.000187  -0.000046   0.000789
    17  H   -0.003262  -0.000038  -0.000002   0.000041  -0.000078   0.000624
    18  H    0.017791  -0.000040   0.000194  -0.000240   0.000080   0.009762
    19  Cl   0.465541   0.141929   0.169377   0.224805  -0.616188  -1.446756
    20  Cl  -0.959468   0.226528   0.234790  -0.780106   0.406702   0.644359
    21  Cl  -0.125628  -0.240059   0.120583  -0.216715   0.056838  -0.239792
    22  Cl   0.737915  -1.142826  -0.745654  -0.203982   0.321274   0.199584
               7          8          9         10         11         12
     1  C    6.980766  -2.824904  -4.995291  -0.657920  -3.758023  -2.092997
     2  C   -1.312531   1.647478  -0.948530   0.280138  -0.078345  -2.939642
     3  C   -1.636639   0.106951   0.526756   0.092083  -0.474987  -1.256578
     4  C    0.460856   0.886610   0.049259  -0.002398   0.048173  -0.605988
     5  C   -2.205800  -2.508665  -0.864524   0.055511   0.589078  -0.056872
     6  C   -1.279110  -3.282532  -0.664076   0.176670  -1.087962   2.161360
     7  C   14.312818   1.194979  -5.566337  -0.533527  -4.703150   0.347601
     8  C    1.194979  18.697517  -3.890635  -2.526928   2.549951  -3.242719
     9  C   -5.566337  -3.890635  16.604969   1.529084   0.500216   3.101299
    10  C   -0.533527  -2.526928   1.529084   9.191243   1.169719  -2.316172
    11  C   -4.703150   2.549951   0.500216   1.169719  15.140051  -4.531926
    12  C    0.347601  -3.242719   3.101299  -2.316172  -4.531926  18.134768
    13  H   -0.141151   0.102788   0.184308   0.031633  -0.015995  -0.017662
    14  H    0.023697  -0.000752  -0.003412  -0.000226   0.000846   0.005834
    15  H   -0.015177   0.046295  -0.007293   0.026195   0.194656   0.076136
    16  H    0.096731   0.022083   0.325043  -0.031430  -0.050177  -0.016321
    17  H   -0.015924   0.015403  -0.028494   0.385043  -0.036757   0.029293
    18  H    0.090611  -0.020213  -0.047923  -0.031313   0.318818   0.033182
    19  Cl   0.269491   0.352375   0.307830  -0.174408  -0.108678  -0.982188
    20  Cl  -0.367328  -0.158412  -0.022682   0.003111  -0.021266  -0.008041
    21  Cl  -0.057968  -0.015914  -0.002667  -0.000859  -0.003219  -0.040124
    22  Cl   0.288027  -1.090941  -0.206131  -0.198417   0.277781   0.298885
              13         14         15         16         17         18
     1  C   -0.322688   0.104767  -0.209391   0.014278  -0.003262   0.017791
     2  C    0.505021   0.007794  -0.001272   0.009092  -0.000038  -0.000040
     3  C    0.183595   0.244170  -0.080285   0.000322  -0.000002   0.000194
     4  C    0.022489   0.018720   0.059595   0.000187   0.000041  -0.000240
     5  C   -0.074012  -0.023869  -0.000803  -0.000046  -0.000078   0.000080
     6  C   -0.007033  -0.018859   0.335577   0.000789   0.000624   0.009762
     7  C   -0.141151   0.023697  -0.015177   0.096731  -0.015924   0.090611
     8  C    0.102788  -0.000752   0.046295   0.022083   0.015403  -0.020213
     9  C    0.184308  -0.003412  -0.007293   0.325043  -0.028494  -0.047923
    10  C    0.031633  -0.000226   0.026195  -0.031430   0.385043  -0.031313
    11  C   -0.015995   0.000846   0.194656  -0.050177  -0.036757   0.318818
    12  C   -0.017662   0.005834   0.076136  -0.016321   0.029293   0.033182
    13  H    0.708091  -0.014067  -0.000429   0.000022  -0.000003   0.000001
    14  H   -0.014067   0.525614   0.000131   0.000000  -0.000000   0.000000
    15  H   -0.000429   0.000131   0.677710   0.000001  -0.000003   0.000004
    16  H    0.000022   0.000000   0.000001   0.509233  -0.007506  -0.000206
    17  H   -0.000003  -0.000000  -0.000003  -0.007506   0.520566  -0.007500
    18  H    0.000001   0.000000   0.000004  -0.000206  -0.007500   0.508737
    19  Cl   0.002394  -0.000169  -0.215897   0.000262   0.002580  -0.021613
    20  Cl   0.000654  -0.000975  -0.032970  -0.000001   0.000000   0.000021
    21  Cl   0.000553  -0.010350   0.001563   0.000001   0.000000  -0.000000
    22  Cl  -0.277016   0.001753   0.001334  -0.021694   0.002625   0.000348
              19         20         21         22
     1  C    0.465541  -0.959468  -0.125628   0.737915
     2  C    0.141929   0.226528  -0.240059  -1.142826
     3  C    0.169377   0.234790   0.120583  -0.745654
     4  C    0.224805  -0.780106  -0.216715  -0.203982
     5  C   -0.616188   0.406702   0.056838   0.321274
     6  C   -1.446756   0.644359  -0.239792   0.199584
     7  C    0.269491  -0.367328  -0.057968   0.288027
     8  C    0.352375  -0.158412  -0.015914  -1.090941
     9  C    0.307830  -0.022682  -0.002667  -0.206131
    10  C   -0.174408   0.003111  -0.000859  -0.198417
    11  C   -0.108678  -0.021266  -0.003219   0.277781
    12  C   -0.982188  -0.008041  -0.040124   0.298885
    13  H    0.002394   0.000654   0.000553  -0.277016
    14  H   -0.000169  -0.000975  -0.010350   0.001753
    15  H   -0.215897  -0.032970   0.001563   0.001334
    16  H    0.000262  -0.000001   0.000001  -0.021694
    17  H    0.002580   0.000000   0.000000   0.002625
    18  H   -0.021613   0.000021  -0.000000   0.000348
    19  Cl  18.058269  -0.082100   0.002831  -0.028706
    20  Cl  -0.082100  17.581167  -0.162721   0.005364
    21  Cl   0.002831  -0.162721  17.404203  -0.004259
    22  Cl  -0.028706   0.005364  -0.004259  18.134829
 Mulliken charges:
               1
     1  C   -0.772844
     2  C   -0.862643
     3  C   -0.157305
     4  C    0.036520
     5  C    0.243920
     6  C   -1.059785
     7  C   -0.230935
     8  C   -0.059816
     9  C    0.119232
    10  C   -0.466832
    11  C    0.081195
    12  C   -0.081128
    13  H    0.128506
    14  H    0.139353
    15  H    0.144326
    16  H    0.149337
    17  H    0.143394
    18  H    0.149501
    19  Cl   0.679020
    20  Cl   0.493375
    21  Cl   0.533702
    22  Cl   0.649908
 Sum of Mulliken charges =  -0.00000
 Mulliken charges with hydrogens summed into heavy atoms:
               1
     1  C   -0.772844
     2  C   -0.734137
     3  C   -0.017952
     4  C    0.036520
     5  C    0.243920
     6  C   -0.915459
     7  C   -0.230935
     8  C   -0.059816
     9  C    0.268569
    10  C   -0.323438
    11  C    0.230696
    12  C   -0.081128
    19  Cl   0.679020
    20  Cl   0.493375
    21  Cl   0.533702
    22  Cl   0.649908
 Electronic spatial extent (au):  <R**2>=           5807.3570
 Charge=             -0.0000 electrons
 Dipole moment (field-independent basis, Debye):
    X=              4.9709    Y=             -0.3991    Z=             -0.0000  Tot=              4.9869
 Quadrupole moment (field-independent basis, Debye-Ang):
   XX=           -113.4934   YY=           -114.9752   ZZ=           -124.1328
   XY=              3.4290   XZ=             -0.0000   YZ=             -0.0000
 Traceless Quadrupole moment (field-independent basis, Debye-Ang):
   XX=              4.0404   YY=              2.5586   ZZ=             -6.5990
   XY=              3.4290   XZ=             -0.0000   YZ=             -0.0000
 Octapole moment (field-independent basis, Debye-Ang**2):
  XXX=             99.6675  YYY=             -5.5907  ZZZ=             -0.0000  XYY=             -3.8853
  XXY=             13.4011  XXZ=             -0.0001  XZZ=            -12.2152  YZZ=              1.9461
  YYZ=             -0.0001  XYZ=             -0.0000
 Hexadecapole moment (field-independent basis, Debye-Ang**3):
 XXXX=          -5080.2685 YYYY=          -2064.6552 ZZZZ=           -145.3768 XXXY=             18.4104
 XXXZ=             -0.0005 YYYX=              1.5741 YYYZ=              0.0000 ZZZX=             -0.0001
 ZZZY=             -0.0000 XXYY=          -1232.9505 XXZZ=           -990.0147 YYZZ=           -396.8928
 XXYZ=             -0.0003 YYXZ=             -0.0001 ZZXY=            -11.6737
 N-N= 1.474281509201D+03 E-N=-8.393324679517D+03  KE= 2.296004421090D+03
 Calling FoFJK, ICntrl=      2127 FMM=F ISym2X=0 I1Cent= 0 IOpClX= 0 NMat=1 NMatS=1 NMatT=0.
 ***** Axes restored to original set *****
 -------------------------------------------------------------------
 Center     Atomic                   Forces (Hartrees/Bohr)
 Number     Number              X              Y              Z
 -------------------------------------------------------------------
      1        6          -0.013673545   -0.023164394    0.000154231
      2        6           0.006418586    0.055227700    0.008257807
      3        6          -0.020993214    0.000713747    0.007050465
      4        6           0.001933214    0.001673803   -0.000322757
      5        6           0.005094348   -0.008887332   -0.003347442
      6        6           0.044399685    0.032433168   -0.008536629
      7        6           0.026753756    0.047463586    0.000100035
      8        6          -0.019454121   -0.007724901    0.004958584
      9        6          -0.001039804    0.009197951    0.002069962
     10        6           0.011942213    0.020503847   -0.000083599
     11        6           0.008510214    0.003494975   -0.002147202
     12        6           0.002294604   -0.020947120   -0.004690135
     13        1           0.004769091    0.050531150    0.007918994
     14        1           0.008523596    0.001651437   -0.002497973
     15        1           0.039240857    0.028467610   -0.007581982
     16        1           0.004895301   -0.007048518   -0.002936532
     17        1          -0.004372730   -0.007486429    0.000034554
     18        1          -0.008545394    0.000818338    0.002968958
     19       17          -0.086165660   -0.059738626    0.017168779
     20       17          -0.002142589   -0.005608536   -0.000347421
     21       17           0.001667414   -0.004958908   -0.001480648
     22       17          -0.010055821   -0.106612547   -0.016710050
 -------------------------------------------------------------------
 Cartesian Forces:  Max     0.106612547 RMS     0.024833061

 GradGradGradGradGradGradGradGradGradGradGradGradGradGradGradGradGradGrad
 Berny optimization.
 FormGI is forming the generalized inverse of G from B-inverse, IUseBI=4.
 Internal  Forces:  Max     0.199390900 RMS     0.049958921
 Search for a local minimum.
 Step number   1 out of a maximum of  121
 All quantities printed in internal units (Hartrees-Bohrs-Radians)
 Mixed Optimization -- RFO/linear search
 Second derivative matrix not updated -- first step.
 ITU=  0
     Eigenvalues ---    0.00237   0.01506   0.01506   0.02070   0.02070
     Eigenvalues ---    0.02070   0.02070   0.02070   0.02070   0.02070
     Eigenvalues ---    0.02070   0.02070   0.02070   0.02070   0.02070
     Eigenvalues ---    0.02070   0.02070   0.02070   0.02070   0.16000
     Eigenvalues ---    0.16000   0.16000   0.16000   0.16000   0.16000
     Eigenvalues ---    0.22085   0.22375   0.23478   0.23491   0.24610
     Eigenvalues ---    0.24913   0.25000   0.25000   0.25000   0.25000
     Eigenvalues ---    0.25000   0.25000   0.28519   0.29539   0.29539
     Eigenvalues ---    0.29539   0.29539   0.37230   0.37230   0.37230
     Eigenvalues ---    0.37230   0.37230   0.37230   0.41393   0.41535
     Eigenvalues ---    0.41554   0.41697   0.45389   0.45389   0.45389
     Eigenvalues ---    0.45389   0.45389   0.45389   0.45389   0.45389
 RFO step:  Lambda=-4.03506830D-01 EMin= 2.36824291D-03
 Linear search not attempted -- first point.
 Maximum step size (   0.300) exceeded in Quadratic search.
    -- Step size scaled by   0.390
 Iteration  1 RMS(Cart)=  0.09736260 RMS(Int)=  0.00391029
 Iteration  2 RMS(Cart)=  0.00449547 RMS(Int)=  0.00015965
 Iteration  3 RMS(Cart)=  0.00000868 RMS(Int)=  0.00015961
 Iteration  4 RMS(Cart)=  0.00000000 RMS(Int)=  0.00015961
 Variable       Old X    -DE/DX   Delta X   Delta X   Delta X     New X
                                 (Linear)    (Quad)   (Total)
    R1        2.64826   0.03333   0.00000   0.01568   0.01582   2.66408
    R2        2.64826   0.03099   0.00000   0.01465   0.01480   2.66306
    R3        2.91018   0.14854   0.00000   0.08403   0.08403   2.99420
    R4        2.64826  -0.00710   0.00000  -0.00326  -0.00326   2.64500
    R5        2.02201  -0.04282   0.00000  -0.02150  -0.02150   2.00050
    R6        2.64826  -0.04148   0.00000  -0.01942  -0.01956   2.62870
    R7        2.02201   0.00891   0.00000   0.00447   0.00447   2.02648
    R8        2.64826  -0.03475   0.00000  -0.01632  -0.01647   2.63180
    R9        3.32592  -0.00343   0.00000  -0.00191  -0.00191   3.32401
   R10        2.64826  -0.00919   0.00000  -0.00414  -0.00414   2.64412
   R11        3.32592  -0.00387   0.00000  -0.00216  -0.00216   3.32376
   R12        2.02201  -0.04026   0.00000  -0.02022  -0.02022   2.00179
   R13        2.64826   0.14029   0.00000   0.06578   0.06609   2.71435
   R14        2.64826   0.13871   0.00000   0.06505   0.06536   2.71362
   R15        2.64826  -0.01104   0.00000  -0.00501  -0.00502   2.64325
   R16        3.32592  -0.00667   0.00000  -0.00372  -0.00372   3.32220
   R17        2.64826  -0.06069   0.00000  -0.02960  -0.02992   2.61835
   R18        2.02201   0.00901   0.00000   0.00452   0.00452   2.02653
   R19        2.64826  -0.06102   0.00000  -0.02976  -0.03007   2.61819
   R20        2.02201   0.00867   0.00000   0.00435   0.00435   2.02636
   R21        2.64826  -0.01152   0.00000  -0.00524  -0.00525   2.64302
   R22        2.02201   0.00903   0.00000   0.00453   0.00453   2.02654
   R23        3.32592  -0.00665   0.00000  -0.00371  -0.00371   3.32221
    A1        2.09440  -0.11110   0.00000  -0.06533  -0.06503   2.02937
    A2        2.09440   0.06059   0.00000   0.03567   0.03552   2.12992
    A3        2.09440   0.05051   0.00000   0.02966   0.02951   2.12390
    A4        2.09440   0.05366   0.00000   0.03362   0.03376   2.12816
    A5        2.09440   0.00186   0.00000   0.00302   0.00295   2.09735
    A6        2.09440  -0.05552   0.00000  -0.03664  -0.03672   2.05768
    A7        2.09440   0.01468   0.00000   0.00772   0.00757   2.10196
    A8        2.09440  -0.00584   0.00000  -0.00282  -0.00274   2.09165
    A9        2.09440  -0.00884   0.00000  -0.00490  -0.00482   2.08957
   A10        2.09440  -0.02552   0.00000  -0.01726  -0.01757   2.07683
   A11        2.09440   0.00575   0.00000   0.00445   0.00460   2.09900
   A12        2.09440   0.01978   0.00000   0.01281   0.01296   2.10736
   A13        2.09440   0.01402   0.00000   0.00712   0.00697   2.10136
   A14        2.09440   0.00064   0.00000   0.00100   0.00108   2.09547
   A15        2.09440  -0.01466   0.00000  -0.00812  -0.00805   2.08635
   A16        2.09440   0.05427   0.00000   0.03415   0.03430   2.12869
   A17        2.09440   0.00123   0.00000   0.00253   0.00246   2.09685
   A18        2.09440  -0.05549   0.00000  -0.03668  -0.03675   2.05764
   A19        2.09440   0.07655   0.00000   0.04303   0.04269   2.13709
   A20        2.09440   0.06719   0.00000   0.03745   0.03711   2.13151
   A21        2.09440  -0.14374   0.00000  -0.08047  -0.07980   2.01459
   A22        2.09440   0.03900   0.00000   0.02576   0.02608   2.12047
   A23        2.09440   0.16039   0.00000   0.09436   0.09420   2.18859
   A24        2.09440  -0.19939   0.00000  -0.12012  -0.12028   1.97412
   A25        2.09440   0.03765   0.00000   0.02047   0.02014   2.11453
   A26        2.09440  -0.01988   0.00000  -0.01097  -0.01080   2.08359
   A27        2.09440  -0.01776   0.00000  -0.00950  -0.00934   2.08506
   A28        2.09440  -0.01017   0.00000  -0.01227  -0.01292   2.08148
   A29        2.09440   0.00507   0.00000   0.00613   0.00645   2.10085
   A30        2.09440   0.00509   0.00000   0.00614   0.00647   2.10086
   A31        2.09440   0.03677   0.00000   0.01989   0.01956   2.11396
   A32        2.09440  -0.01735   0.00000  -0.00923  -0.00906   2.08533
   A33        2.09440  -0.01942   0.00000  -0.01066  -0.01050   2.08390
   A34        2.09440   0.04050   0.00000   0.02663   0.02694   2.12134
   A35        2.09440   0.15609   0.00000   0.09180   0.09164   2.18604
   A36        2.09440  -0.19658   0.00000  -0.11843  -0.11859   1.97581
    D1        0.00000   0.00000   0.00000   0.00000   0.00000   0.00000
    D2        3.14159  -0.00000   0.00000   0.00000   0.00000   3.14159
    D3       -3.14159  -0.00000   0.00000  -0.00000  -0.00000  -3.14159
    D4       -0.00000  -0.00000   0.00000  -0.00000  -0.00000  -0.00000
    D5       -0.00000  -0.00000   0.00000  -0.00000  -0.00000  -0.00000
    D6        3.14159  -0.00000   0.00000  -0.00000  -0.00000   3.14159
    D7        3.14159   0.00000   0.00000   0.00000   0.00000   3.14159
    D8        0.00000  -0.00000   0.00000  -0.00000  -0.00000  -0.00000
    D9       -0.00000  -0.00000   0.00000  -0.00000  -0.00000  -0.00000
   D10        3.14159  -0.00000   0.00000  -0.00000  -0.00000   3.14159
   D11        3.14159  -0.00000   0.00000  -0.00000  -0.00000   3.14159
   D12       -0.00000  -0.00000   0.00000  -0.00000  -0.00000  -0.00000
   D13        0.00000  -0.00000   0.00000  -0.00000  -0.00000   0.00000
   D14        3.14159  -0.00000   0.00000  -0.00000  -0.00000   3.14159
   D15       -3.14159  -0.00000   0.00000  -0.00000  -0.00000  -3.14159
   D16        0.00000  -0.00000   0.00000  -0.00000  -0.00000   0.00000
   D17       -0.00000  -0.00000   0.00000   0.00000   0.00000  -0.00000
   D18        3.14159   0.00000   0.00000   0.00000   0.00000   3.14159
   D19        3.14159  -0.00000   0.00000  -0.00000  -0.00000   3.14159
   D20        0.00000  -0.00000   0.00000  -0.00000  -0.00000   0.00000
   D21        0.00000   0.00000   0.00000   0.00000   0.00000   0.00000
   D22       -3.14159   0.00000   0.00000   0.00000   0.00000  -3.14159
   D23       -3.14159  -0.00000   0.00000  -0.00000  -0.00000  -3.14159
   D24        0.00000   0.00000   0.00000   0.00000   0.00000   0.00000
   D25       -0.00000   0.00000   0.00000   0.00000   0.00000  -0.00000
   D26        3.14159   0.00000   0.00000   0.00000   0.00000   3.14159
   D27        3.14159   0.00000   0.00000  -0.00000  -0.00000   3.14159
   D28       -0.00000   0.00000   0.00000   0.00000   0.00000  -0.00000
   D29        3.14159   0.00000   0.00000   0.00000   0.00000   3.14159
   D30        0.00000   0.00000   0.00000   0.00000   0.00000   0.00000
   D31        0.00000   0.00000   0.00000   0.00000   0.00000   0.00000
   D32       -3.14159  -0.00000   0.00000  -0.00000  -0.00000  -3.14159
   D33       -3.14159  -0.00000   0.00000  -0.00000  -0.00000  -3.14159
   D34        0.00000  -0.00000   0.00000  -0.00000  -0.00000  -0.00000
   D35       -0.00000   0.00000   0.00000   0.00000   0.00000  -0.00000
   D36        3.14159  -0.00000   0.00000  -0.00000  -0.00000   3.14159
   D37       -0.00000  -0.00000   0.00000  -0.00000  -0.00000  -0.00000
   D38        3.14159  -0.00000   0.00000  -0.00000  -0.00000   3.14159
   D39        3.14159   0.00000   0.00000   0.00000   0.00000   3.14159
   D40       -0.00000   0.00000   0.00000   0.00000   0.00000  -0.00000
   D41       -0.00000   0.00000   0.00000   0.00000   0.00000  -0.00000
   D42       -3.14159  -0.00000   0.00000  -0.00000  -0.00000  -3.14159
   D43        3.14159   0.00000   0.00000   0.00000   0.00000   3.14159
   D44        0.00000   0.00000   0.00000   0.00000   0.00000   0.00000
   D45        0.00000   0.00000   0.00000   0.00000   0.00000   0.00000
   D46       -3.14159  -0.00000   0.00000  -0.00000  -0.00000  -3.14159
   D47        3.14159   0.00000   0.00000   0.00000   0.00000   3.14159
   D48        0.00000   0.00000   0.00000   0.00000   0.00000   0.00000
   D49        0.00000  -0.00000   0.00000  -0.00000  -0.00000   0.00000
   D50       -3.14159   0.00000   0.00000   0.00000   0.00000  -3.14159
   D51        3.14159   0.00000   0.00000   0.00000   0.00000   3.14159
   D52       -0.00000   0.00000   0.00000   0.00000   0.00000  -0.00000
         Item               Value     Threshold  Converged?
 Maximum Force            0.199391     0.000450     NO 
 RMS     Force            0.049959     0.000300     NO 
 Maximum Displacement     0.555801     0.001800     NO 
 RMS     Displacement     0.098821     0.001200     NO 
 Predicted change in Energy=-1.447094D-01
 GradGradGradGradGradGradGradGradGradGradGradGradGradGradGradGradGradGrad

                          Input orientation:                          
 ---------------------------------------------------------------------
 Center     Atomic      Atomic             Coordinates (Angstroms)
 Number     Number       Type             X           Y           Z
 ---------------------------------------------------------------------
      1          6           0        0.866150    0.549792   -0.004708
      2          6           0        2.207366    0.629383   -0.431630
      3          6           0        2.912186    1.838634   -0.436727
      4          6           0        2.298887    3.013456   -0.014029
      5          6           0        0.974312    2.967375    0.413701
      6          6           0        0.273158    1.756525    0.417291
      7          6           0        0.066034   -0.817796    0.002049
      8          6           0        0.654234   -2.056862   -0.424446
      9          6           0       -0.070738   -3.252981   -0.410241
     10          6           0       -1.388235   -3.287599    0.017317
     11          6           0       -1.994889   -2.114969    0.437415
     12          6           0       -1.300120   -0.901114    0.436492
     13          1           0        2.713151   -0.240104   -0.761559
     14          1           0        3.931710    1.860665   -0.768476
     15          1           0       -0.732310    1.767062    0.750525
     16          1           0        0.402066   -4.158683   -0.736109
     17          1           0       -1.932253   -4.211638    0.023007
     18          1           0       -3.014465   -2.137695    0.769057
     19         17           0       -2.267053    0.450919    1.008983
     20         17           0        0.171335    4.435987    0.954062
     21         17           0        3.188845    4.530672   -0.022282
     22         17           0        2.301861   -2.255511   -1.004573
 ---------------------------------------------------------------------
                    Distance matrix (angstroms):
                    1          2          3          4          5
     1  C    0.000000
     2  C    1.409773   0.000000
     3  C    2.456424   1.399674   0.000000
     4  C    2.849994   2.422101   1.391048   0.000000
     5  C    2.455907   2.775107   2.398466   1.392686   0.000000
     6  C    1.409229   2.394218   2.774988   2.422703   1.399210
     7  C    1.584465   2.620632   3.917873   4.434454   3.914327
     8  C    2.648723   3.102931   4.502598   5.346162   5.103715
     9  C    3.937423   4.501441   5.901109   6.711210   6.361120
    10  C    4.450652   5.335977   6.706567   7.300626   6.698019
    11  C    3.934713   5.093688   6.361956   6.703809   5.886165
    12  C    2.644335   3.924095   5.100221   5.336635   4.487624
    13  H    2.146666   1.058621   2.113359   3.363937   3.833109
    14  H    3.420437   2.145433   1.072368   2.136406   3.371729
    15  H    2.146438   3.366526   3.833671   3.365441   2.113471
    16  H    4.787490   5.126148   6.508314   7.453785   7.240873
    17  H    5.522955   6.385814   7.764389   8.372926   7.754933
    18  H    4.783353   6.030414   7.238115   7.441726   6.488325
    19  Cl   3.294587   4.704003   5.553408   5.334880   4.146487
    20  Cl   4.062576   4.533851   4.024027   2.736288   1.758858
    21  Cl   4.608973   4.043628   2.737767   1.758988   2.745566
    22  Cl   3.306164   2.942755   4.178154   5.361269   5.572471
                    6          7          8          9         10
     6  C    0.000000
     7  C    2.615809   0.000000
     8  C    3.923730   1.436371   0.000000
     9  C    5.089030   2.473624   1.398745   0.000000
    10  C    5.325729   2.866192   2.425190   1.385569   0.000000
    11  C    4.486971   2.473784   2.786402   2.390805   1.385487
    12  C    3.088465   1.435987   2.428265   2.785609   2.424620
    13  H    3.365974   2.814970   2.766477   4.117146   5.168679
    14  H    3.847323   4.765639   5.119299   6.503638   7.444724
    15  H    1.059302   2.806967   4.233847   5.194795   5.149508
    16  H    6.027987   3.437924   2.139713   1.072394   2.128759
    17  H    6.374815   3.938496   3.396055   2.138215   1.072304
    18  H    5.108537   3.438009   3.858800   3.361568   2.128854
    19  Cl   2.916740   2.840220   4.108236   4.533969   3.966389
    20  Cl   2.734595   5.340380   6.655116   7.812820   7.934957
    21  Cl   4.048500   6.193436   7.069766   8.447524   9.059613
    22  Cl   4.715269   2.842399   1.758034   2.641477   3.965636
                   11         12         13         14         15
    11  C    0.000000
    12  C    1.398624   0.000000
    13  H    5.207524   4.240119   0.000000
    14  H    7.237708   6.037501   2.428614   0.000000
    15  H    4.094180   2.745940   4.264542   4.906038   0.000000
    16  H    3.361446   3.858003   4.549398   6.977964   6.213803
    17  H    2.138148   3.395605   6.161851   8.478524   6.141172
    18  H    1.072398   2.139792   6.224888   8.160897   4.522798
    19  Cl   2.642829   1.758038   5.330550   6.600864   2.038251
    20  Cl   6.919139   5.560369   5.591960   4.872355   2.825095
    21  Cl   8.440792   7.061557   4.851095   2.870121   4.859035
    22  Cl   4.534440   4.109176   2.071251   4.433402   5.335509
                   16         17         18         19         20
    16  H    0.000000
    17  H    2.455220   0.000000
    18  H    4.245303   2.455405   0.000000
    19  Cl   5.605174   4.777413   2.705017   0.000000
    20  Cl   8.762321   8.948372   7.307315   4.672207   0.000000
    21  Cl   9.153173  10.131914   9.141903   6.890189   3.172945
    22  Cl   2.702472   4.775989   5.605619   5.679273   7.290510
                   21         22
    21  Cl   0.000000
    22  Cl   6.914038   0.000000
 Stoichiometry    C12H6Cl4
 Framework group  C1[X(C12H6Cl4)]
 Deg. of freedom    60
 Full point group                 C1      NOp   1
 Largest Abelian subgroup         C1      NOp   1
 Largest concise Abelian subgroup C1      NOp   1
                         Standard orientation:                         
 ---------------------------------------------------------------------
 Center     Atomic      Atomic             Coordinates (Angstroms)
 Number     Number       Type             X           Y           Z
 ---------------------------------------------------------------------
      1          6           0        0.080913   -0.297476    0.000001
      2          6           0       -0.432154   -1.610572   -0.000001
      3          6           0       -1.807977   -1.867863   -0.000002
      4          6           0       -2.721061   -0.818439   -0.000002
      5          6           0       -2.245178    0.490419    0.000002
      6          6           0       -0.869036    0.743449    0.000003
      7          6           0        1.637864   -0.003483    0.000002
      8          6           0        2.620014   -1.051597    0.000003
      9          6           0        3.989969   -0.769263    0.000002
     10          6           0        4.452681    0.536762    0.000000
     11          6           0        3.539504    1.578722   -0.000001
     12          6           0        2.162599    1.333197   -0.000001
     13          1           0        0.226692   -2.439186   -0.000003
     14          1           0       -2.161531   -2.880272   -0.000004
     15          1           0       -0.550929    1.753859    0.000005
     16          1           0        4.693892   -1.578287    0.000003
     17          1           0        5.505777    0.738812   -0.000002
     18          1           0        3.893733    2.590927   -0.000005
     19         17           0        1.196989    2.802311   -0.000005
     20         17           0       -3.374752    1.838620    0.000006
     21         17           0       -4.449110   -1.146901   -0.000004
     22         17           0        2.270611   -2.774559    0.000001
 ---------------------------------------------------------------------
 Rotational constants (GHZ):           0.5604132           0.2156812           0.1557421
 Standard basis: 6-311+G(d,p) (5D, 7F)
 There are   436 symmetry adapted cartesian basis functions of A   symmetry.
 There are   420 symmetry adapted basis functions of A   symmetry.
   420 basis functions,   692 primitive gaussians,   436 cartesian basis functions
    73 alpha electrons       73 beta electrons
       nuclear repulsion energy      1444.1195268761 Hartrees.
 NAtoms=   22 NActive=   22 NUniq=   22 SFac= 1.00D+00 NAtFMM=   60 NAOKFM=F Big=F
 Integral buffers will be    131072 words long.
 Raffenetti 2 integral format.
 Two-electron integral symmetry is turned on.
 One-electron integrals computed using PRISM.
 NBasis=   420 RedAO= T EigKep=  1.00D-06  NBF=   420
 NBsUse=   415 1.00D-06 EigRej=  7.59D-07 NBFU=   415
 Initial guess from the checkpoint file:  "/scratch/gour/Gau-24163.chk"
 B after Tr=     0.000000   -0.000000   -0.000000
         Rot=    0.999998   -0.000000    0.000000    0.002094 Ang=  -0.24 deg.
 ExpMin= 4.38D-02 ExpMax= 1.06D+05 ExpMxC= 3.62D+03 IAcc=3 IRadAn=         5 AccDes= 0.00D+00
 Harris functional with IExCor=  402 and IRadAn=       5 diagonalized for initial guess.
 HarFok:  IExCor=  402 AccDes= 0.00D+00 IRadAn=         5 IDoV= 1 UseB2=F ITyADJ=14
 ICtDFT=  3500011 ScaDFX=  1.000000  1.000000  1.000000  1.000000
 FoFCou: FMM=F IPFlag=           0 FMFlag=      100000 FMFlg1=           0
         NFxFlg=           0 DoJE=T BraDBF=F KetDBF=T FulRan=T
         wScrn=  0.000000 ICntrl=       500 IOpCl=  0 I1Cent=   200000004 NGrid=           0
         NMat0=    1 NMatS0=      1 NMatT0=    0 NMatD0=    1 NMtDS0=    0 NMtDT0=    0
 Petite list used in FoFCou.
 Requested convergence on RMS density matrix=1.00D-08 within  32 cycles.
 Requested convergence on MAX density matrix=1.00D-06.
 Requested convergence on             energy=1.00D-06.
 No special actions if energy rises.
 SCF Done:  E(RB3LYP) =  -2301.86202699     A.U. after   15 cycles
            NFock= 15  Conv=0.27D-08     -V/T= 2.0028
 QCSCF skips out because SCF is already converged.
 Calling FoFJK, ICntrl=      2127 FMM=F ISym2X=0 I1Cent= 0 IOpClX= 0 NMat=1 NMatS=1 NMatT=0.
 ***** Axes restored to original set *****
 -------------------------------------------------------------------
 Center     Atomic                   Forces (Hartrees/Bohr)
 Number     Number              X              Y              Z
 -------------------------------------------------------------------
      1        6          -0.012243198   -0.021392860    0.000015711
      2        6          -0.003565220    0.018651933    0.004677735
      3        6          -0.013434884   -0.005468112    0.003399325
      4        6           0.003228254    0.004795005   -0.000163223
      5        6          -0.002732849   -0.004420302    0.000070212
      6        6           0.016756783    0.005149963   -0.004553418
      7        6           0.016808764    0.030017102    0.000099901
      8        6          -0.019681846    0.004148871    0.007263603
      9        6           0.000357530    0.006473123    0.001097831
     10        6           0.006050447    0.010294944   -0.000059838
     11        6           0.005374406    0.003441011   -0.001124235
     12        6           0.012668184   -0.015360712   -0.007058583
     13        1           0.006650761    0.000915101   -0.002019307
     14        1           0.006611613    0.000257117   -0.002129927
     15        1          -0.001190703    0.007329727    0.001768761
     16        1           0.004841812   -0.004787050   -0.002494188
     17        1          -0.003713287   -0.006323660    0.000035672
     18        1          -0.006527549    0.001934275    0.002513744
     19       17          -0.013790459   -0.009501300    0.002759003
     20       17          -0.001604467   -0.005627539   -0.000528272
     21       17           0.000217360   -0.006103797   -0.001217942
     22       17          -0.001081450   -0.014422839   -0.002352565
 -------------------------------------------------------------------
 Cartesian Forces:  Max     0.030017102 RMS     0.008533661

 GradGradGradGradGradGradGradGradGradGradGradGradGradGradGradGradGradGrad
 Berny optimization.
 Using GEDIIS/GDIIS optimizer.
 FormGI is forming the generalized inverse of G from B-inverse, IUseBI=4.
 Internal  Forces:  Max     0.033863177 RMS     0.007518603
 Search for a local minimum.
 Step number   2 out of a maximum of  121
 All quantities printed in internal units (Hartrees-Bohrs-Radians)
 Mixed Optimization -- RFO/linear search
 Update second derivatives using D2CorX and points    1    2
 DE= -7.77D-02 DEPred=-1.45D-01 R= 5.37D-01
 TightC=F SS=  1.41D+00  RLast= 3.00D-01 DXNew= 5.0454D-01 8.9996D-01
 Trust test= 5.37D-01 RLast= 3.00D-01 DXMaxT set to 5.05D-01
 ITU=  1  0
 Use linear search instead of GDIIS.
     Eigenvalues ---    0.00237   0.01460   0.01468   0.02070   0.02070
     Eigenvalues ---    0.02070   0.02070   0.02070   0.02070   0.02070
     Eigenvalues ---    0.02070   0.02070   0.02070   0.02070   0.02070
     Eigenvalues ---    0.02070   0.02070   0.02070   0.02070   0.15998
     Eigenvalues ---    0.16000   0.16000   0.16000   0.16000   0.16087
     Eigenvalues ---    0.22133   0.22375   0.23453   0.23628   0.24625
     Eigenvalues ---    0.24880   0.24973   0.25000   0.25000   0.25000
     Eigenvalues ---    0.25000   0.27835   0.29532   0.29537   0.29539
     Eigenvalues ---    0.29539   0.36230   0.37193   0.37230   0.37230
     Eigenvalues ---    0.37230   0.37230   0.38213   0.41238   0.41426
     Eigenvalues ---    0.41816   0.45063   0.45333   0.45389   0.45389
     Eigenvalues ---    0.45389   0.45389   0.45389   0.45389   1.57148
 RFO step:  Lambda=-1.22283006D-02 EMin= 2.36824291D-03
 Quartic linear search produced a step of  0.32897.
 Iteration  1 RMS(Cart)=  0.06061205 RMS(Int)=  0.00203784
 Iteration  2 RMS(Cart)=  0.00241626 RMS(Int)=  0.00010841
 Iteration  3 RMS(Cart)=  0.00000215 RMS(Int)=  0.00010840
 Iteration  4 RMS(Cart)=  0.00000000 RMS(Int)=  0.00010840
 Variable       Old X    -DE/DX   Delta X   Delta X   Delta X     New X
                                 (Linear)    (Quad)   (Total)
    R1        2.66408   0.00239   0.00520  -0.00776  -0.00248   2.66160
    R2        2.66306   0.00133   0.00487  -0.00949  -0.00456   2.65850
    R3        2.99420  -0.00576   0.02764  -0.10986  -0.08222   2.91199
    R4        2.64500  -0.00944  -0.00107  -0.02419  -0.02525   2.61975
    R5        2.00050   0.00306  -0.00707   0.03121   0.02414   2.02464
    R6        2.62870  -0.00799  -0.00644  -0.00504  -0.01154   2.61716
    R7        2.02648   0.00695   0.00147   0.01971   0.02118   2.04766
    R8        2.63180  -0.00281  -0.00542   0.00719   0.00170   2.63350
    R9        3.32401  -0.00515  -0.00063  -0.02033  -0.02096   3.30305
   R10        2.64412  -0.00875  -0.00136  -0.02071  -0.02208   2.62204
   R11        3.32376  -0.00413  -0.00071  -0.01568  -0.01639   3.30737
   R12        2.00179   0.00176  -0.00665   0.02550   0.01885   2.02064
   R13        2.71435   0.00765   0.02174  -0.03856  -0.01659   2.69776
   R14        2.71362   0.01034   0.02150  -0.03009  -0.00839   2.70523
   R15        2.64325  -0.00685  -0.00165  -0.01493  -0.01654   2.62670
   R16        3.32220   0.00139  -0.00122   0.00971   0.00849   3.33069
   R17        2.61835  -0.01050  -0.00984  -0.00353  -0.01357   2.60477
   R18        2.02653   0.00694   0.00149   0.01961   0.02110   2.04763
   R19        2.61819  -0.01024  -0.00989  -0.00253  -0.01266   2.60553
   R20        2.02636   0.00733   0.00143   0.02115   0.02258   2.04894
   R21        2.64302  -0.00628  -0.00173  -0.01284  -0.01460   2.62841
   R22        2.02654   0.00694   0.00149   0.01963   0.02112   2.04766
   R23        3.32221   0.00118  -0.00122   0.00877   0.00755   3.32976
    A1        2.02937  -0.01476  -0.02139  -0.00844  -0.02969   1.99968
    A2        2.12992   0.00446   0.01168  -0.01366  -0.00205   2.12787
    A3        2.12390   0.01030   0.00971   0.02210   0.03173   2.15563
    A4        2.12816   0.00760   0.01111   0.00588   0.01707   2.14523
    A5        2.09735   0.00251   0.00097   0.02330   0.02423   2.12158
    A6        2.05768  -0.01011  -0.01208  -0.02918  -0.04130   2.01638
    A7        2.10196   0.00326   0.00249   0.00719   0.00963   2.11159
    A8        2.09165  -0.00151  -0.00090  -0.00386  -0.00473   2.08692
    A9        2.08957  -0.00175  -0.00159  -0.00333  -0.00489   2.08468
   A10        2.07683  -0.00573  -0.00578  -0.01382  -0.01974   2.05708
   A11        2.09900  -0.00296   0.00151  -0.01829  -0.01671   2.08229
   A12        2.10736   0.00869   0.00426   0.03211   0.03645   2.14381
   A13        2.10136   0.00222   0.00229   0.00286   0.00507   2.10643
   A14        2.09547   0.00584   0.00035   0.02909   0.02948   2.12496
   A15        2.08635  -0.00806  -0.00265  -0.03195  -0.03455   2.05180
   A16        2.12869   0.00741   0.01128   0.00633   0.01767   2.14636
   A17        2.09685   0.00373   0.00081   0.03199   0.03277   2.12962
   A18        2.05764  -0.01114  -0.01209  -0.03832  -0.05044   2.00720
   A19        2.13709   0.00687   0.01404  -0.01159   0.00221   2.13930
   A20        2.13151   0.01865   0.01221   0.05382   0.06579   2.19729
   A21        2.01459  -0.02551  -0.02625  -0.04223  -0.06800   1.94659
   A22        2.12047   0.01313   0.00858   0.04233   0.05118   2.17165
   A23        2.18859   0.01766   0.03099  -0.00837   0.02248   2.21107
   A24        1.97412  -0.03080  -0.03957  -0.03395  -0.07366   1.90046
   A25        2.11453   0.00239   0.00662  -0.01053  -0.00408   2.11045
   A26        2.08359  -0.00334  -0.00355  -0.01045  -0.01391   2.06968
   A27        2.08506   0.00095  -0.00307   0.02098   0.01800   2.10305
   A28        2.08148  -0.00461  -0.00425  -0.01836  -0.02308   2.05840
   A29        2.10085   0.00230   0.00212   0.00911   0.01147   2.11232
   A30        2.10086   0.00232   0.00213   0.00925   0.01161   2.11247
   A31        2.11396   0.00313   0.00644  -0.00491   0.00123   2.11519
   A32        2.08533   0.00058  -0.00298   0.01817   0.01533   2.10066
   A33        2.08390  -0.00371  -0.00345  -0.01325  -0.01656   2.06733
   A34        2.12134   0.01148   0.00886   0.03371   0.04275   2.16409
   A35        2.18604   0.02239   0.03015   0.01784   0.04791   2.23395
   A36        1.97581  -0.03386  -0.03901  -0.05156  -0.09065   1.88515
    D1        0.00000  -0.00000   0.00000  -0.00000  -0.00000   0.00000
    D2        3.14159   0.00000   0.00000   0.00000   0.00000  -3.14159
    D3       -3.14159  -0.00000  -0.00000  -0.00000  -0.00000   3.14159
    D4       -0.00000  -0.00000  -0.00000   0.00000   0.00000  -0.00000
    D5       -0.00000   0.00000  -0.00000   0.00000   0.00000  -0.00000
    D6        3.14159  -0.00000  -0.00000  -0.00000  -0.00000   3.14159
    D7        3.14159   0.00000   0.00000   0.00000   0.00000  -3.14159
    D8       -0.00000  -0.00000  -0.00000  -0.00000  -0.00000  -0.00000
    D9       -0.00000  -0.00000  -0.00000  -0.00001  -0.00001  -0.00002
   D10        3.14159  -0.00000  -0.00000  -0.00001  -0.00001   3.14158
   D11        3.14159  -0.00000  -0.00000  -0.00001  -0.00001   3.14158
   D12       -0.00000  -0.00000  -0.00000  -0.00001  -0.00001  -0.00002
   D13        0.00000  -0.00000  -0.00000  -0.00000  -0.00000  -0.00000
   D14        3.14159   0.00000  -0.00000   0.00000   0.00000   3.14159
   D15       -3.14159  -0.00000  -0.00000  -0.00000  -0.00000  -3.14159
   D16        0.00000  -0.00000  -0.00000  -0.00000  -0.00000   0.00000
   D17       -0.00000   0.00000   0.00000   0.00000   0.00000  -0.00000
   D18        3.14159  -0.00000   0.00000  -0.00000  -0.00000   3.14159
   D19        3.14159   0.00000  -0.00000   0.00000   0.00000   3.14159
   D20        0.00000  -0.00000  -0.00000  -0.00000  -0.00000  -0.00000
   D21        0.00000  -0.00000   0.00000  -0.00000  -0.00000   0.00000
   D22       -3.14159  -0.00000   0.00000  -0.00000  -0.00000  -3.14159
   D23       -3.14159  -0.00000  -0.00000   0.00000   0.00000  -3.14159
   D24        0.00000   0.00000   0.00000   0.00000   0.00000   0.00000
   D25       -0.00000   0.00000   0.00000   0.00000   0.00000  -0.00000
   D26        3.14159   0.00000   0.00000   0.00000   0.00000  -3.14159
   D27        3.14159   0.00000  -0.00000   0.00000   0.00000   3.14159
   D28       -0.00000   0.00000   0.00000   0.00000   0.00000   0.00000
   D29        3.14159   0.00000   0.00000   0.00000   0.00000  -3.14159
   D30        0.00000  -0.00000   0.00000  -0.00000  -0.00000   0.00000
   D31        0.00000   0.00000   0.00000   0.00000   0.00000   0.00000
   D32       -3.14159  -0.00000  -0.00000  -0.00000  -0.00000   3.14159
   D33       -3.14159  -0.00000  -0.00000  -0.00000  -0.00000   3.14159
   D34       -0.00000  -0.00000  -0.00000  -0.00000  -0.00000  -0.00000
   D35       -0.00000   0.00000   0.00000   0.00000   0.00000  -0.00000
   D36        3.14159  -0.00000  -0.00000   0.00000  -0.00000   3.14159
   D37       -0.00000  -0.00000  -0.00000  -0.00000  -0.00000  -0.00000
   D38        3.14159  -0.00000  -0.00000  -0.00000  -0.00000   3.14159
   D39        3.14159   0.00000   0.00000   0.00000   0.00000  -3.14159
   D40       -0.00000   0.00000   0.00000   0.00000   0.00000   0.00000
   D41       -0.00000   0.00000   0.00000   0.00000   0.00000   0.00000
   D42       -3.14159  -0.00000  -0.00000  -0.00000  -0.00000  -3.14159
   D43        3.14159   0.00000   0.00000   0.00000   0.00000  -3.14159
   D44        0.00000  -0.00000   0.00000  -0.00000  -0.00000   0.00000
   D45        0.00000   0.00000   0.00000   0.00000   0.00000   0.00000
   D46       -3.14159  -0.00000  -0.00000  -0.00000  -0.00000  -3.14159
   D47        3.14159   0.00000   0.00000   0.00000   0.00000  -3.14159
   D48        0.00000  -0.00000   0.00000  -0.00000  -0.00000   0.00000
   D49        0.00000  -0.00000  -0.00000  -0.00000  -0.00000  -0.00000
   D50       -3.14159  -0.00000   0.00000  -0.00000  -0.00000  -3.14159
   D51        3.14159   0.00000   0.00000   0.00000   0.00000   3.14159
   D52       -0.00000   0.00000   0.00000   0.00000   0.00000   0.00000
         Item               Value     Threshold  Converged?
 Maximum Force            0.033863     0.000450     NO 
 RMS     Force            0.007519     0.000300     NO 
 Maximum Displacement     0.294933     0.001800     NO 
 RMS     Displacement     0.061001     0.001200     NO 
 Predicted change in Energy=-3.322342D-03
 GradGradGradGradGradGradGradGradGradGradGradGradGradGradGradGradGradGrad

                          Input orientation:                          
 ---------------------------------------------------------------------
 Center     Atomic      Atomic             Coordinates (Angstroms)
 Number     Number       Type             X           Y           Z
 ---------------------------------------------------------------------
      1          6           0        0.832426    0.566189    0.009486
      2          6           0        2.172340    0.633828   -0.419244
      3          6           0        2.898891    1.814365   -0.436896
      4          6           0        2.329831    3.008007   -0.025250
      5          6           0        1.005056    2.983190    0.406534
      6          6           0        0.286798    1.796115    0.420226
      7          6           0        0.046182   -0.759054    0.019627
      8          6           0        0.620044   -1.996419   -0.401833
      9          6           0       -0.052699   -3.212743   -0.408634
     10          6           0       -1.364031   -3.299169    0.007168
     11          6           0       -1.985466   -2.142937    0.429065
     12          6           0       -1.313261   -0.925284    0.436292
     13          1           0        2.697963   -0.236941   -0.755943
     14          1           0        3.927443    1.804222   -0.777655
[...]

 **********************************************************************

            Population analysis using the SCF Density.

 **********************************************************************

 Orbital symmetries:
       Occupied  (A) (A) (A) (A) (A) (A) (A) (A) (A) (A) (A) (A)
                 (A) (A) (A) (A) (A) (A) (A) (A) (A) (A) (A) (A)
                 (A) (A) (A) (A) (A) (A) (A) (A) (A) (A) (A) (A)
                 (A) (A) (A) (A) (A) (A) (A) (A) (A) (A) (A) (A)
                 (A) (A) (A) (A) (A) (A) (A) (A) (A) (A) (A) (A)
                 (A) (A) (A) (A) (A) (A) (A) (A) (A) (A) (A) (A)
                 (A)
       Virtual   (A) (A) (A) (A) (A) (A) (A) (A) (A) (A) (A) (A)
                 (A) (A) (A) (A) (A) (A) (A) (A) (A) (A) (A) (A)
                 (A) (A) (A) (A) (A) (A) (A) (A) (A) (A) (A) (A)
                 (A) (A) (A) (A) (A) (A) (A) (A) (A) (A) (A) (A)
                 (A) (A) (A) (A) (A) (A) (A) (A) (A) (A) (A) (A)
                 (A) (A) (A) (A) (A) (A) (A) (A) (A) (A) (A) (A)
                 (A) (A) (A) (A) (A) (A) (A) (A) (A) (A) (A) (A)
                 (A) (A) (A) (A) (A) (A) (A) (A) (A) (A) (A) (A)
                 (A) (A) (A) (A) (A) (A) (A) (A) (A) (A) (A) (A)
                 (A) (A) (A) (A) (A) (A) (A) (A) (A) (A) (A) (A)
                 (A) (A) (A) (A) (A) (A) (A) (A) (A) (A) (A) (A)
                 (A) (A) (A) (A) (A) (A) (A) (A) (A) (A) (A) (A)
                 (A) (A) (A) (A) (A) (A) (A) (A) (A) (A) (A) (A)
                 (A) (A) (A) (A) (A) (A) (A) (A) (A) (A) (A) (A)
                 (A) (A) (A) (A) (A) (A) (A) (A) (A) (A) (A) (A)
                 (A) (A) (A) (A) (A) (A) (A) (A) (A) (A) (A) (A)
                 (A) (A) (A) (A) (A) (A) (A) (A) (A) (A) (A) (A)
                 (A) (A) (A) (A) (A) (A) (A) (A) (A) (A) (A) (A)
                 (A) (A) (A) (A) (A) (A) (A) (A) (A) (A) (A) (A)
                 (A) (A) (A) (A) (A) (A) (A) (A) (A) (A) (A) (A)
                 (A) (A) (A) (A) (A) (A) (A) (A) (A) (A) (A) (A)
                 (A) (A) (A) (A) (A) (A) (A) (A) (A) (A) (A) (A)
                 (A) (A) (A) (A) (A) (A) (A) (A) (A) (A) (A) (A)
                 (A) (A) (A) (A) (A) (A) (A) (A) (A) (A) (A) (A)
                 (A) (A) (A) (A) (A) (A) (A) (A) (A) (A) (A) (A)
                 (A) (A) (A) (A) (A) (A) (A) (A) (A) (A) (A) (A)
                 (A) (A) (A) (A) (A) (A) (A) (A) (A) (A) (A) (A)
                 (A) (A) (A) (A) (A) (A) (A) (A) (A) (A) (A) (A)
                 (A) (A) (A) (A) (A) (A) (A) (A)
 The electronic state is 1-A.
 Alpha  occ. eigenvalues -- -101.56816-101.56816-101.56566-101.56535 -10.26404
 Alpha  occ. eigenvalues --  -10.26404 -10.25965 -10.25906 -10.22787 -10.21636
 Alpha  occ. eigenvalues --  -10.21024 -10.20788 -10.20780 -10.20668 -10.20584
 Alpha  occ. eigenvalues --  -10.20232  -9.48285  -9.48284  -9.48024  -9.47995
 Alpha  occ. eigenvalues --   -7.24751  -7.24751  -7.24503  -7.24475  -7.23772
 Alpha  occ. eigenvalues --   -7.23772  -7.23716  -7.23716  -7.23506  -7.23476
 Alpha  occ. eigenvalues --   -7.23450  -7.23420  -0.93471  -0.92434  -0.88978
 Alpha  occ. eigenvalues --   -0.86936  -0.85992  -0.84398  -0.79566  -0.76391
 Alpha  occ. eigenvalues --   -0.75404  -0.73926  -0.65471  -0.63947  -0.62454
 Alpha  occ. eigenvalues --   -0.60696  -0.55135  -0.52212  -0.51425  -0.51095
 Alpha  occ. eigenvalues --   -0.48890  -0.47532  -0.45582  -0.45546  -0.45399
 Alpha  occ. eigenvalues --   -0.42964  -0.42845  -0.41678  -0.39805  -0.39157
 Alpha  occ. eigenvalues --   -0.38646  -0.37951  -0.35711  -0.35011  -0.33949
 Alpha  occ. eigenvalues --   -0.33760  -0.33432  -0.32527  -0.31749  -0.27978
 Alpha  occ. eigenvalues --   -0.27455  -0.26728  -0.26047
 Alpha virt. eigenvalues --   -0.05062  -0.04775  -0.04303  -0.03704  -0.02097
 Alpha virt. eigenvalues --   -0.01376  -0.00398   0.01124   0.01590   0.02011
 Alpha virt. eigenvalues --    0.02045   0.02510   0.03328   0.03885   0.04531
 Alpha virt. eigenvalues --    0.05165   0.05707   0.05861   0.06482   0.06815
 Alpha virt. eigenvalues --    0.07043   0.07829   0.08201   0.08707   0.08959
 Alpha virt. eigenvalues --    0.09256   0.09606   0.10367   0.10983   0.11486
 Alpha virt. eigenvalues --    0.11530   0.12147   0.12567   0.12777   0.12846
 Alpha virt. eigenvalues --    0.13153   0.13364   0.13789   0.14912   0.14950
 Alpha virt. eigenvalues --    0.15585   0.15790   0.16257   0.16408   0.17043
 Alpha virt. eigenvalues --    0.17264   0.17312   0.17904   0.18060   0.18897
 Alpha virt. eigenvalues --    0.19012   0.19378   0.19576   0.19711   0.20740
 Alpha virt. eigenvalues --    0.20945   0.21200   0.21862   0.22281   0.22551
 Alpha virt. eigenvalues --    0.22826   0.23128   0.23437   0.23926   0.24850
 Alpha virt. eigenvalues --    0.24875   0.24898   0.25760   0.26195   0.26637
 Alpha virt. eigenvalues --    0.27132   0.27270   0.27922   0.28123   0.28603
 Alpha virt. eigenvalues --    0.28902   0.29510   0.29949   0.30272   0.30304
 Alpha virt. eigenvalues --    0.31799   0.32306   0.32715   0.33340   0.36102
 Alpha virt. eigenvalues --    0.36672   0.41397   0.41811   0.44394   0.44687
 Alpha virt. eigenvalues --    0.44929   0.45317   0.45930   0.46097   0.46830
 Alpha virt. eigenvalues --    0.47749   0.48192   0.48741   0.49086   0.50518
 Alpha virt. eigenvalues --    0.50934   0.51040   0.52150   0.54221   0.54367
 Alpha virt. eigenvalues --    0.55466   0.56755   0.57206   0.57372   0.58090
 Alpha virt. eigenvalues --    0.58537   0.59013   0.59941   0.60364   0.61689
 Alpha virt. eigenvalues --    0.62079   0.64048   0.64353   0.64890   0.65100
 Alpha virt. eigenvalues --    0.65483   0.66125   0.66339   0.67019   0.68353
 Alpha virt. eigenvalues --    0.69081   0.70267   0.70290   0.70423   0.71856
 Alpha virt. eigenvalues --    0.71870   0.73985   0.75498   0.78906   0.79209
 Alpha virt. eigenvalues --    0.81080   0.81908   0.82143   0.83494   0.83851
 Alpha virt. eigenvalues --    0.84019   0.84952   0.85160   0.85175   0.85617
 Alpha virt. eigenvalues --    0.85805   0.86018   0.86168   0.87211   0.87309
 Alpha virt. eigenvalues --    0.88992   0.89245   0.90106   0.90988   0.91974
 Alpha virt. eigenvalues --    0.92968   0.94198   0.95543   0.95622   0.95970
 Alpha virt. eigenvalues --    0.96152   0.96310   0.96768   0.98444   0.99263
 Alpha virt. eigenvalues --    0.99481   1.01086   1.01531   1.02984   1.04009
 Alpha virt. eigenvalues --    1.05105   1.06584   1.07747   1.08986   1.10836
 Alpha virt. eigenvalues --    1.13182   1.15633   1.18277   1.22914   1.24194
 Alpha virt. eigenvalues --    1.24428   1.24680   1.27152   1.27972   1.28709
 Alpha virt. eigenvalues --    1.31066   1.31667   1.31965   1.32667   1.33823
 Alpha virt. eigenvalues --    1.39984   1.40942   1.42221   1.47076   1.48356
 Alpha virt. eigenvalues --    1.49099   1.52674   1.54823   1.55140   1.55600
 Alpha virt. eigenvalues --    1.56768   1.57343   1.59328   1.61661   1.63911
 Alpha virt. eigenvalues --    1.64860   1.67156   1.67985   1.68924   1.69466
 Alpha virt. eigenvalues --    1.72937   1.75173   1.77380   1.78549   1.80749
 Alpha virt. eigenvalues --    1.82476   1.82695   1.86522   1.86961   1.88567
 Alpha virt. eigenvalues --    1.89851   1.91766   1.93472   1.93651   1.95381
 Alpha virt. eigenvalues --    1.95450   1.96946   1.96961   1.98291   2.01865
 Alpha virt. eigenvalues --    2.02524   2.03054   2.07825   2.12104   2.13285
 Alpha virt. eigenvalues --    2.14398   2.18293   2.19563   2.24541   2.26480
 Alpha virt. eigenvalues --    2.26946   2.27120   2.28089   2.29339   2.29740
 Alpha virt. eigenvalues --    2.31637   2.34051   2.36458   2.40103   2.40678
 Alpha virt. eigenvalues --    2.41013   2.41984   2.45461   2.47161   2.51939
 Alpha virt. eigenvalues --    2.52249   2.53115   2.55341   2.55401   2.57248
 Alpha virt. eigenvalues --    2.58419   2.61983   2.67399   2.67771   2.69239
 Alpha virt. eigenvalues --    2.69588   2.70427   2.71532   2.72606   2.73478
 Alpha virt. eigenvalues --    2.74828   2.75844   2.75871   2.77604   2.78521
 Alpha virt. eigenvalues --    2.79029   2.83721   2.83875   2.84210   2.84711
 Alpha virt. eigenvalues --    2.88914   2.90487   2.97005   3.00351   3.09983
 Alpha virt. eigenvalues --    3.10082   3.13191   3.13508   3.14429   3.18247
 Alpha virt. eigenvalues --    3.19586   3.22065   3.27539   3.33409   3.33850
 Alpha virt. eigenvalues --    3.38329   3.44176   3.52311   3.53536   3.61166
 Alpha virt. eigenvalues --    3.70296   3.70360   3.78164   3.86474   3.97804
 Alpha virt. eigenvalues --    4.01738   4.07384   4.08253   4.12649   4.34757
 Alpha virt. eigenvalues --    4.80885   4.82361   9.76764   9.80054   9.80317
 Alpha virt. eigenvalues --    9.83027  23.41618  23.56554  23.84916  23.88572
 Alpha virt. eigenvalues --   23.89894  23.92504  23.96587  24.03293  24.03935
 Alpha virt. eigenvalues --   24.08191  24.14090  24.16438  25.78841  25.84996
 Alpha virt. eigenvalues --   25.87391  25.91690  26.08341  26.18847  26.25372
 Alpha virt. eigenvalues --   26.27217  26.52447  26.60158  26.78324  26.80405
 Alpha virt. eigenvalues --  215.75850 215.79655 215.79848 215.83437
          Condensed to atoms (all electrons):
               1          2          3          4          5          6
     1  C   35.687677   3.565621  -3.321148  -4.054346 -11.285592   8.513949
     2  C    3.565621  24.752076  -1.660683   0.016285  -5.367836  -3.894424
     3  C   -3.321148  -1.660683  29.737491  -5.936184  -4.075075 -15.129024
     4  C   -4.054346   0.016285  -5.936184  31.799698  -5.540669  -3.880630
     5  C  -11.285592  -5.367836  -4.075075  -5.540669  37.917962 -17.365195
     6  C    8.513949  -3.894424 -15.129024  -3.880630 -17.365195  57.688859
     7  C   -6.213975  -5.741840   6.138166  -4.257608  10.490110 -15.436437
     8  C   -4.213910  -1.943177   0.387558  -0.465428   0.485456  -1.373281
     9  C   -3.747600  -0.962793   0.153392  -0.109915   0.128938  -0.505696
    10  C   -0.053515   0.067307  -0.062560   0.023621  -0.179956   0.215021
    11  C   -3.739787  -0.959455   0.152812  -0.109199   0.125940  -0.503523
    12  C   -4.194508  -1.934045   0.382625  -0.461756   0.473442  -1.359086
    13  H   -0.001517   0.206616  -0.008266  -0.059092   0.001058  -0.022986
    14  H    0.025237  -0.044776   0.275242   0.059740   0.052269  -0.021948
    15  H   -0.027682  -0.007127   0.023938  -0.002704   0.142255  -0.081751
    16  H    0.027206   0.001851  -0.000346   0.000126  -0.001143  -0.000227
    17  H    0.012977   0.000471  -0.000164   0.000062  -0.000391  -0.000613
    18  H    0.027201   0.001849  -0.000346   0.000126  -0.001142  -0.000226
    19  Cl  -0.423623   0.034479   0.233871  -0.110285   0.524540  -0.504728
    20  Cl  -0.348360   0.263344   0.612045  -0.064152  -1.403679   0.293439
    21  Cl  -0.203523   0.386889  -0.790589  -1.170532   0.218634   1.117776
    22  Cl  -0.423355   0.035077   0.233402  -0.110123   0.524196  -0.504258
               7          8          9         10         11         12
     1  C   -6.213975  -4.213910  -3.747600  -0.053515  -3.739787  -4.194508
     2  C   -5.741840  -1.943177  -0.962793   0.067307  -0.959455  -1.934045
     3  C    6.138166   0.387558   0.153392  -0.062560   0.152812   0.382625
     4  C   -4.257608  -0.465428  -0.109915   0.023621  -0.109199  -0.461756
     5  C   10.490110   0.485456   0.128938  -0.179956   0.125940   0.473442
     6  C  -15.436437  -1.373281  -0.505696   0.215021  -0.503523  -1.359086
     7  C   26.218214   1.327273  -4.144736  -0.906420  -4.147240   1.310155
     8  C    1.327273  13.758150  -2.402841  -1.313183   3.238151  -0.723657
     9  C   -4.144736  -2.402841  12.292677   1.301813   0.775072   3.238079
    10  C   -0.906420  -1.313183   1.301813   7.210806   1.301691  -1.312087
    11  C   -4.147240   3.238151   0.775072   1.301691  12.289311  -2.406460
    12  C    1.310155  -0.723657   3.238079  -1.312087  -2.406460  13.750204
    13  H    0.096649   0.054384   0.015004   0.002728   0.014976   0.054253
    14  H   -0.001243   0.003208   0.000160   0.000183   0.000161   0.003215
    15  H    0.180419   0.053957   0.011630   0.004396   0.011591   0.053758
    16  H    0.083973   0.027887   0.304026  -0.040876  -0.029792  -0.014433
    17  H    0.004204   0.005054  -0.035089   0.394092  -0.035099   0.005030
    18  H    0.083902  -0.014453  -0.029786  -0.040844   0.304101   0.027866
    19  Cl   0.441543  -0.517334   0.305564  -0.151160  -0.495038  -0.248996
    20  Cl  -0.114328  -0.020061   0.004162   0.000572   0.004172  -0.020014
    21  Cl  -0.235636  -0.037501  -0.003377  -0.001490  -0.003353  -0.037323
    22  Cl   0.440324  -0.248237  -0.494516  -0.150997   0.305509  -0.517941
              13         14         15         16         17         18
     1  C   -0.001517   0.025237  -0.027682   0.027206   0.012977   0.027201
     2  C    0.206616  -0.044776  -0.007127   0.001851   0.000471   0.001849
     3  C   -0.008266   0.275242   0.023938  -0.000346  -0.000164  -0.000346
     4  C   -0.059092   0.059740  -0.002704   0.000126   0.000062   0.000126
     5  C    0.001058   0.052269   0.142255  -0.001143  -0.000391  -0.001142
     6  C   -0.022986  -0.021948  -0.081751  -0.000227  -0.000613  -0.000226
     7  C    0.096649  -0.001243   0.180419   0.083973   0.004204   0.083902
     8  C    0.054384   0.003208   0.053957   0.027887   0.005054  -0.014453
     9  C    0.015004   0.000160   0.011630   0.304026  -0.035089  -0.029786
    10  C    0.002728   0.000183   0.004396  -0.040876   0.394092  -0.040844
    11  C    0.014976   0.000161   0.011591  -0.029792  -0.035099   0.304101
    12  C    0.054253   0.003215   0.053758  -0.014433   0.005030   0.027866
    13  H    0.533338  -0.007101  -0.000024   0.000000  -0.000003   0.000000
    14  H   -0.007101   0.510702   0.000053   0.000000  -0.000000   0.000000
    15  H   -0.000024   0.000053   0.516050   0.000001  -0.000003   0.000001
    16  H    0.000000   0.000000   0.000001   0.509110  -0.007506  -0.000182
    17  H   -0.000003  -0.000000  -0.000003  -0.007506   0.521811  -0.007506
    18  H    0.000000   0.000000   0.000001  -0.000182  -0.007506   0.509110
    19  Cl  -0.004103  -0.001066  -0.003927   0.000366   0.000155  -0.010847
    20  Cl  -0.000057   0.000042  -0.013519  -0.000009  -0.000000  -0.000009
    21  Cl  -0.001614  -0.008463  -0.001998  -0.000001   0.000000  -0.000001
    22  Cl  -0.004101  -0.001065  -0.003925  -0.010851   0.000153   0.000366
              19         20         21         22
     1  C   -0.423623  -0.348360  -0.203523  -0.423355
     2  C    0.034479   0.263344   0.386889   0.035077
     3  C    0.233871   0.612045  -0.790589   0.233402
     4  C   -0.110285  -0.064152  -1.170532  -0.110123
     5  C    0.524540  -1.403679   0.218634   0.524196
     6  C   -0.504728   0.293439   1.117776  -0.504258
     7  C    0.441543  -0.114328  -0.235636   0.440324
     8  C   -0.517334  -0.020061  -0.037501  -0.248237
     9  C    0.305564   0.004162  -0.003377  -0.494516
    10  C   -0.151160   0.000572  -0.001490  -0.150997
    11  C   -0.495038   0.004172  -0.003353   0.305509
    12  C   -0.248996  -0.020014  -0.037323  -0.517941
    13  H   -0.004103  -0.000057  -0.001614  -0.004101
    14  H   -0.001066   0.000042  -0.008463  -0.001065
    15  H   -0.003927  -0.013519  -0.001998  -0.003925
    16  H    0.000366  -0.000009  -0.000001  -0.010851
    17  H    0.000155  -0.000000   0.000000   0.000153
    18  H   -0.010847  -0.000009  -0.000001   0.000366
    19  Cl  17.552548   0.001343   0.004422  -0.049350
    20  Cl   0.001343  17.498034  -0.197930   0.001346
    21  Cl   0.004422  -0.197930  17.486793   0.004430
    22  Cl  -0.049350   0.001346   0.004430  17.552350
 Mulliken charges:
               1
     1  C    0.392573
     2  C   -0.815711
     3  C   -1.346156
     4  C    0.432964
     5  C    0.135878
     6  C   -1.245009
     7  C    0.384529
     8  C   -0.068017
     9  C   -0.094165
    10  C   -0.309143
    11  C   -0.094538
    12  C   -0.068321
    13  H    0.129856
    14  H    0.155451
    15  H    0.144610
    16  H    0.150818
    17  H    0.142366
    18  H    0.150819
    19  Cl   0.421625
    20  Cl   0.503619
    21  Cl   0.474386
    22  Cl   0.421567
 Sum of Mulliken charges =  -0.00000
 Mulliken charges with hydrogens summed into heavy atoms:
               1
     1  C    0.392573
     2  C   -0.685855
     3  C   -1.190705
     4  C    0.432964
     5  C    0.135878
     6  C   -1.100399
     7  C    0.384529
     8  C   -0.068017
     9  C    0.056653
    10  C   -0.166776
    11  C    0.056281
    12  C   -0.068321
    19  Cl   0.421625
    20  Cl   0.503619
    21  Cl   0.474386
    22  Cl   0.421567
 Electronic spatial extent (au):  <R**2>=           5770.1003
 Charge=             -0.0000 electrons
 Dipole moment (field-independent basis, Debye):
    X=              3.7193    Y=              0.0004    Z=             -0.8030  Tot=              3.8050
 Quadrupole moment (field-independent basis, Debye-Ang):
   XX=           -111.6159   YY=           -123.6336   ZZ=           -117.0566
   XY=              0.0003   XZ=              3.6653   YZ=             -0.0013
 Traceless Quadrupole moment (field-independent basis, Debye-Ang):
   XX=              5.8195   YY=             -6.1983   ZZ=              0.3788
   XY=              0.0003   XZ=              3.6653   YZ=             -0.0013
 Octapole moment (field-independent basis, Debye-Ang**2):
  XXX=             83.8992  YYY=             -0.0003  ZZZ=             -6.9475  XYY=             -2.5303
  XXY=              0.0045  XXZ=              7.3471  XZZ=            -18.1186  YZZ=              0.0018
  YYZ=              3.9909  XYZ=              0.0015
 Hexadecapole moment (field-independent basis, Debye-Ang**3):
 XXXX=          -4988.8811 YYYY=          -1480.1665 ZZZZ=           -779.2717 XXXY=              0.0044
 XXXZ=             41.7908 YYYX=              0.0018 YYYZ=              0.0101 ZZZX=            -12.4013
 ZZZY=             -0.0148 XXYY=          -1123.0428 XXZZ=          -1059.1942 YYZZ=           -404.4358
 XXYZ=             -0.0009 YYXZ=              0.9151 ZZXY=             -0.0027
 N-N= 1.458911019698D+03 E-N=-8.362485071230D+03  KE= 2.295550865103D+03
 1\1\GINC-LOCALHOST\FOpt\RB3LYP\6-311+G(d,p)\C12H6Cl4\GOUR\16-Mar-2022\
 0\\# opt b3lyp/6-311+g(d,p) scf=xqc\\Title Card Required\\0,1\C,0.8360
 876814,0.5064059941,0.0206585739\C,2.1209583504,0.5861480315,0.5627519
 037\C,2.8142357831,1.7897313877,0.5537854373\C,2.2355652053,2.93182415
 56,0.0036481456\C,0.950480518,2.8591949864,-0.5404120885\C,0.258915382
 3,1.6500154144,-0.5292371295\C,0.0838767479,-0.783156155,0.0263322406\
 C,0.1767763199,-1.6988400495,-1.0332144404\C,-0.5179887046,-2.90435782
 08,-1.0400049966\C,-1.3366685532,-3.2222385589,0.0380402412\C,-1.45952
 90681,-2.3456605326,1.1104315921\C,-0.7538308859,-1.1466440704,1.09212
 30046\H,2.5827804268,-0.2939771742,0.9936318848\H,3.8100247403,1.85448
 77488,0.9731638213\H,-0.7356562067,1.6112439818,-0.9547342227\H,-0.414
 5170654,-3.5780942733,-1.8801999905\H,-1.8822962459,-4.1583689389,0.04
 23571648\H,-2.0935448071,-2.5818032914,1.9547141247\Cl,-0.9339159695,-
 0.063958533,2.4641138353\Cl,0.1763877409,4.2593017327,-1.2432041705\Cl
 ,3.1417465765,4.425220968,0.0126920623\Cl,1.2013426537,-1.3309583632,-
 2.4123172832\\Version=EM64L-G16RevB.01\State=1-A\HF=-2301.8997117\RMSD
 =3.187e-09\RMSF=6.710e-06\Dipole=-0.3171478,-1.4438082,0.2362611\Quadr
 upole=1.9661469,1.7759702,-3.7421171,3.6301399,1.93621,-0.0693153\PG=C
 01 [X(C12H6Cl4)]\\@


 MOM AND DAD WENT TO ALPHA CENTAURI AND ALL
 I GOT WAS THIS DUMB T-SHIRT.
 Job cpu time:       0 days 13 hours 15 minutes 34.4 seconds.
 Elapsed time:       0 days  3 hours 19 minutes 28.8 seconds.
 File lengths (MBytes):  RWF=    120 Int=      0 D2E=      0 Chk=     18 Scr=      1
 Normal termination of Gaussian 16 at Wed Mar 16 02:57:31 2022.
