 Entering Gaussian System, Link 0=g16
 Input=2,3prime,4,4prime,5,5prime-Hexachlorobiphenyl.gjf
 Output=2,3prime,4,4prime,5,5prime-Hexachlorobiphenyl.log
 Initial command:
 /home/apps/g16/l1.exe "./Gau-390911.inp" -scrdir="./"
 Entering Link 1 = /home/apps/g16/l1.exe PID=    390912.
  
 Copyright (c) 1988-2017, Gaussian, Inc.  All Rights Reserved.
  
 This is part of the Gaussian(R) 16 program.  It is based on
 the Gaussian(R) 09 system (copyright 2009, Gaussian, Inc.),
 the Gaussian(R) 03 system (copyright 2003, Gaussian, Inc.),
 the Gaussian(R) 98 system (copyright 1998, Gaussian, Inc.),
 the Gaussian(R) 94 system (copyright 1995, Gaussian, Inc.),
 the Gaussian 92(TM) system (copyright 1992, Gaussian, Inc.),
 the Gaussian 90(TM) system (copyright 1990, Gaussian, Inc.),
 the Gaussian 88(TM) system (copyright 1988, Gaussian, Inc.),
 the Gaussian 86(TM) system (copyright 1986, Carnegie Mellon
 University), and the Gaussian 82(TM) system (copyright 1983,
 Carnegie Mellon University). Gaussian is a federally registered
 trademark of Gaussian, Inc.
  
 This software contains proprietary and confidential information,
 including trade secrets, belonging to Gaussian, Inc.
  
 This software is provided under written license and may be
 used, copied, transmitted, or stored only in accord with that
 written license.
  
 The following legend is applicable only to US Government
 contracts under FAR:
  
                    RESTRICTED RIGHTS LEGEND
  
 Use, reproduction and disclosure by the US Government is
 subject to restrictions as set forth in subparagraphs (a)
 and (c) of the Commercial Computer Software - Restricted
 Rights clause in FAR 52.227-19.
  
 Gaussian, Inc.
 340 Quinnipiac St., Bldg. 40, Wallingford CT 06492
  
  
 ---------------------------------------------------------------
 Warning -- This program may not be used in any manner that
 competes with the business of Gaussian, Inc. or will provide
 assistance to any competitor of Gaussian, Inc.  The licensee
 of this program is prohibited from giving any competitor of
 Gaussian, Inc. access to this program.  By using this program,
 the user acknowledges that Gaussian, Inc. is engaged in the
 business of creating and licensing software in the field of
 computational chemistry and represents and warrants to the
 licensee that it is not a competitor of Gaussian, Inc. and that
 it will not use this program in any manner prohibited above.
 ---------------------------------------------------------------
  

 Cite this work as:
 Gaussian 16, Revision B.01,
 M. J. Frisch, G. W. Trucks, H. B. Schlegel, G. E. Scuseria, 
 M. A. Robb, J. R. Cheeseman, G. Scalmani, V. Barone, 
 G. A. Petersson, H. Nakatsuji, X. Li, M. Caricato, A. V. Marenich, 
 J. Bloino, B. G. Janesko, R. Gomperts, B. Mennucci, H. P. Hratchian, 
 J. V. Ortiz, A. F. Izmaylov, J. L. Sonnenberg, D. Williams-Young, 
 F. Ding, F. Lipparini, F. Egidi, J. Goings, B. Peng, A. Petrone, 
 T. Henderson, D. Ranasinghe, V. G. Zakrzewski, J. Gao, N. Rega, 
 G. Zheng, W. Liang, M. Hada, M. Ehara, K. Toyota, R. Fukuda, 
 J. Hasegawa, M. Ishida, T. Nakajima, Y. Honda, O. Kitao, H. Nakai, 
 T. Vreven, K. Throssell, J. A. Montgomery, Jr., J. E. Peralta, 
 F. Ogliaro, M. J. Bearpark, J. J. Heyd, E. N. Brothers, K. N. Kudin, 
 V. N. Staroverov, T. A. Keith, R. Kobayashi, J. Normand, 
 K. Raghavachari, A. P. Rendell, J. C. Burant, S. S. Iyengar, 
 J. Tomasi, M. Cossi, J. M. Millam, M. Klene, C. Adamo, R. Cammi, 
 J. W. Ochterski, R. L. Martin, K. Morokuma, O. Farkas, 
 J. B. Foresman, and D. J. Fox, Gaussian, Inc., Wallingford CT, 2016.
 
 ******************************************
 Gaussian 16:  EM64L-G16RevB.01 20-Dec-2017
                24-Mar-2022 
 ******************************************
 %mem=10GB
 %nprocshared=4
 Will use up to    4 processors via shared memory.
 --------------------------------
 # opt b3lyp/6-311+g(d,p) scf=xqc
 --------------------------------
 1/18=20,19=15,26=3,38=1/1,3;
 2/9=110,12=2,17=6,18=5,40=1/2;
 3/5=4,6=6,7=111,11=2,25=1,30=1,71=1,74=-5/1,2,3;
 4//1;
 5/5=2,8=3,13=1,38=5/2,8;
 6/7=2,8=2,9=2,10=2,28=1/1;
 7//1,2,3,16;
 1/18=20,19=15,26=3/3(2);
 2/9=110/2;
 99//99;
 2/9=110/2;
 3/5=4,6=6,7=111,11=2,25=1,30=1,71=1,74=-5/1,2,3;
 4/5=5,16=3,69=1/1;
 5/5=2,8=3,13=1,38=5/2,8;
 7//1,2,3,16;
 1/18=20,19=15,26=3/3(-5);
 2/9=110/2;
 6/7=2,8=2,9=2,10=2,19=2,28=1/1;
 99/9=1/99;
 -------------------
 Title Card Required
 -------------------
 Symbolic Z-matrix:
 Charge =  0 Multiplicity = 1
 C                    -1.4536    1.48179   0.23481 
 C                    -0.12122   1.51168  -0.19854 
 C                     0.58668   2.72113  -0.20461 
 C                    -0.03781   3.90069   0.22266 
 C                    -1.37019   3.87081   0.65601 
 C                    -2.07809   2.66136   0.66208 
 C                    -2.2315    0.15273   0.24148 
 C                    -1.60702  -1.02684  -0.1858 
 C                    -2.31491  -2.23629  -0.17972 
 C                    -3.64729  -2.26618   0.25363 
 C                    -4.27178  -1.08661   0.6809 
 C                    -3.56388   0.12284   0.67483 
 H                     0.35559   0.61105  -0.52477 
 H                    -3.09539   2.63854   0.99295 
 H                    -0.58971  -1.00402  -0.51667 
 H                    -5.28908  -1.10943   1.01178 
 Cl                   -4.53632  -3.78511   0.26126 
 Cl                    0.85122   5.41963   0.21504 
 Cl                   -1.53062  -3.71769  -0.71633 
 Cl                    2.26      2.75866  -0.74885 
 Cl                   -4.34817   1.60424   1.21144 
 Cl                   -2.15448   5.35221   1.19261 
 

 GradGradGradGradGradGradGradGradGradGradGradGradGradGradGradGradGradGrad
 Berny optimization.
 Initialization pass.
                           ----------------------------
                           !    Initial Parameters    !
                           ! (Angstroms and Degrees)  !
 --------------------------                            --------------------------
 ! Name  Definition              Value          Derivative Info.                !
 --------------------------------------------------------------------------------
 ! R1    R(1,2)                  1.4014         estimate D2E/DX2                !
 ! R2    R(1,6)                  1.4014         estimate D2E/DX2                !
 ! R3    R(1,7)                  1.54           estimate D2E/DX2                !
 ! R4    R(2,3)                  1.4014         estimate D2E/DX2                !
 ! R5    R(2,13)                 1.07           estimate D2E/DX2                !
 ! R6    R(3,4)                  1.4014         estimate D2E/DX2                !
 ! R7    R(3,20)                 1.76           estimate D2E/DX2                !
 ! R8    R(4,5)                  1.4014         estimate D2E/DX2                !
 ! R9    R(4,18)                 1.76           estimate D2E/DX2                !
 ! R10   R(5,6)                  1.4014         estimate D2E/DX2                !
 ! R11   R(5,22)                 1.76           estimate D2E/DX2                !
 ! R12   R(6,14)                 1.07           estimate D2E/DX2                !
 ! R13   R(7,8)                  1.4014         estimate D2E/DX2                !
 ! R14   R(7,12)                 1.4014         estimate D2E/DX2                !
 ! R15   R(8,9)                  1.4014         estimate D2E/DX2                !
 ! R16   R(8,15)                 1.07           estimate D2E/DX2                !
 ! R17   R(9,10)                 1.4014         estimate D2E/DX2                !
 ! R18   R(9,19)                 1.76           estimate D2E/DX2                !
 ! R19   R(10,11)                1.4014         estimate D2E/DX2                !
 ! R20   R(10,17)                1.76           estimate D2E/DX2                !
 ! R21   R(11,12)                1.4014         estimate D2E/DX2                !
 ! R22   R(11,16)                1.07           estimate D2E/DX2                !
 ! R23   R(12,21)                1.76           estimate D2E/DX2                !
 ! A1    A(2,1,6)              120.0            estimate D2E/DX2                !
 ! A2    A(2,1,7)              120.0            estimate D2E/DX2                !
 ! A3    A(6,1,7)              120.0            estimate D2E/DX2                !
 ! A4    A(1,2,3)              120.0            estimate D2E/DX2                !
 ! A5    A(1,2,13)             120.0            estimate D2E/DX2                !
 ! A6    A(3,2,13)             120.0            estimate D2E/DX2                !
 ! A7    A(2,3,4)              120.0            estimate D2E/DX2                !
 ! A8    A(2,3,20)             120.0            estimate D2E/DX2                !
 ! A9    A(4,3,20)             120.0            estimate D2E/DX2                !
 ! A10   A(3,4,5)              120.0            estimate D2E/DX2                !
 ! A11   A(3,4,18)             120.0            estimate D2E/DX2                !
 ! A12   A(5,4,18)             120.0            estimate D2E/DX2                !
 ! A13   A(4,5,6)              120.0            estimate D2E/DX2                !
 ! A14   A(4,5,22)             120.0            estimate D2E/DX2                !
 ! A15   A(6,5,22)             120.0            estimate D2E/DX2                !
 ! A16   A(1,6,5)              120.0            estimate D2E/DX2                !
 ! A17   A(1,6,14)             120.0            estimate D2E/DX2                !
 ! A18   A(5,6,14)             120.0            estimate D2E/DX2                !
 ! A19   A(1,7,8)              120.0            estimate D2E/DX2                !
 ! A20   A(1,7,12)             120.0            estimate D2E/DX2                !
 ! A21   A(8,7,12)             120.0            estimate D2E/DX2                !
 ! A22   A(7,8,9)              120.0            estimate D2E/DX2                !
 ! A23   A(7,8,15)             120.0            estimate D2E/DX2                !
 ! A24   A(9,8,15)             120.0            estimate D2E/DX2                !
 ! A25   A(8,9,10)             120.0            estimate D2E/DX2                !
 ! A26   A(8,9,19)             120.0            estimate D2E/DX2                !
 ! A27   A(10,9,19)            120.0            estimate D2E/DX2                !
 ! A28   A(9,10,11)            120.0            estimate D2E/DX2                !
 ! A29   A(9,10,17)            120.0            estimate D2E/DX2                !
 ! A30   A(11,10,17)           120.0            estimate D2E/DX2                !
 ! A31   A(10,11,12)           120.0            estimate D2E/DX2                !
 ! A32   A(10,11,16)           120.0            estimate D2E/DX2                !
 ! A33   A(12,11,16)           120.0            estimate D2E/DX2                !
 ! A34   A(7,12,11)            120.0            estimate D2E/DX2                !
 ! A35   A(7,12,21)            120.0            estimate D2E/DX2                !
 ! A36   A(11,12,21)           120.0            estimate D2E/DX2                !
 ! D1    D(6,1,2,3)              0.0001         estimate D2E/DX2                !
 ! D2    D(6,1,2,13)           180.0            estimate D2E/DX2                !
 ! D3    D(7,1,2,3)           -180.0            estimate D2E/DX2                !
 ! D4    D(7,1,2,13)            -0.0001         estimate D2E/DX2                !
 ! D5    D(2,1,6,5)             -0.0001         estimate D2E/DX2                !
 ! D6    D(2,1,6,14)           180.0            estimate D2E/DX2                !
 ! D7    D(7,1,6,5)            180.0            estimate D2E/DX2                !
 ! D8    D(7,1,6,14)             0.0            estimate D2E/DX2                !
 ! D9    D(2,1,7,8)             -0.0001         estimate D2E/DX2                !
 ! D10   D(2,1,7,12)           179.9998         estimate D2E/DX2                !
 ! D11   D(6,1,7,8)            179.9999         estimate D2E/DX2                !
 ! D12   D(6,1,7,12)            -0.0002         estimate D2E/DX2                !
 ! D13   D(1,2,3,4)              0.0            estimate D2E/DX2                !
 ! D14   D(1,2,3,20)           180.0            estimate D2E/DX2                !
 ! D15   D(13,2,3,4)          -179.9999         estimate D2E/DX2                !
 ! D16   D(13,2,3,20)            0.0001         estimate D2E/DX2                !
 ! D17   D(2,3,4,5)             -0.0001         estimate D2E/DX2                !
 ! D18   D(2,3,4,18)           180.0            estimate D2E/DX2                !
 ! D19   D(20,3,4,5)           179.9999         estimate D2E/DX2                !
 ! D20   D(20,3,4,18)            0.0            estimate D2E/DX2                !
 ! D21   D(3,4,5,6)              0.0001         estimate D2E/DX2                !
 ! D22   D(3,4,5,22)          -179.9999         estimate D2E/DX2                !
 ! D23   D(18,4,5,6)          -180.0            estimate D2E/DX2                !
 ! D24   D(18,4,5,22)            0.0            estimate D2E/DX2                !
 ! D25   D(4,5,6,1)              0.0            estimate D2E/DX2                !
 ! D26   D(4,5,6,14)           179.9999         estimate D2E/DX2                !
 ! D27   D(22,5,6,1)           180.0            estimate D2E/DX2                !
 ! D28   D(22,5,6,14)           -0.0001         estimate D2E/DX2                !
 ! D29   D(1,7,8,9)            179.9999         estimate D2E/DX2                !
 ! D30   D(1,7,8,15)             0.0001         estimate D2E/DX2                !
 ! D31   D(12,7,8,9)             0.0001         estimate D2E/DX2                !
 ! D32   D(12,7,8,15)         -179.9998         estimate D2E/DX2                !
 ! D33   D(1,7,12,11)         -179.9999         estimate D2E/DX2                !
 ! D34   D(1,7,12,21)            0.0            estimate D2E/DX2                !
 ! D35   D(8,7,12,11)           -0.0001         estimate D2E/DX2                !
 ! D36   D(8,7,12,21)          179.9999         estimate D2E/DX2                !
 ! D37   D(7,8,9,10)             0.0            estimate D2E/DX2                !
 ! D38   D(7,8,9,19)           180.0            estimate D2E/DX2                !
 ! D39   D(15,8,9,10)          179.9998         estimate D2E/DX2                !
 ! D40   D(15,8,9,19)           -0.0002         estimate D2E/DX2                !
 ! D41   D(8,9,10,11)            0.0            estimate D2E/DX2                !
 ! D42   D(8,9,10,17)         -179.9999         estimate D2E/DX2                !
 ! D43   D(19,9,10,11)         180.0            estimate D2E/DX2                !
 ! D44   D(19,9,10,17)           0.0001         estimate D2E/DX2                !
 ! D45   D(9,10,11,12)           0.0            estimate D2E/DX2                !
 ! D46   D(9,10,11,16)        -179.9998         estimate D2E/DX2                !
 ! D47   D(17,10,11,12)        179.9999         estimate D2E/DX2                !
 ! D48   D(17,10,11,16)          0.0001         estimate D2E/DX2                !
 ! D49   D(10,11,12,7)           0.0            estimate D2E/DX2                !
 ! D50   D(10,11,12,21)       -179.9999         estimate D2E/DX2                !
 ! D51   D(16,11,12,7)         179.9999         estimate D2E/DX2                !
 ! D52   D(16,11,12,21)         -0.0001         estimate D2E/DX2                !
 --------------------------------------------------------------------------------
 Trust Radius=3.00D-01 FncErr=1.00D-07 GrdErr=1.00D-06 EigMax=2.50D+02 EigMin=1.00D-04
 Number of steps in this run=    121 maximum allowed number of steps=    132.
 GradGradGradGradGradGradGradGradGradGradGradGradGradGradGradGradGradGrad

                          Input orientation:                          
 ---------------------------------------------------------------------
 Center     Atomic      Atomic             Coordinates (Angstroms)
 Number     Number       Type             X           Y           Z
 ---------------------------------------------------------------------
      1          6           0       -1.453598    1.481792    0.234805
      2          6           0       -0.121217    1.511678   -0.198542
      3          6           0        0.586677    2.721129   -0.204614
      4          6           0       -0.037811    3.900694    0.222661
      5          6           0       -1.370192    3.870809    0.656006
      6          6           0       -2.078086    2.661358    0.662078
      7          6           0       -2.231503    0.152725    0.241479
      8          6           0       -1.607016   -1.026840   -0.185796
      9          6           0       -2.314908   -2.236291   -0.179722
     10          6           0       -3.647289   -2.266178    0.253628
     11          6           0       -4.271776   -1.086613    0.680904
     12          6           0       -3.563883    0.122838    0.674829
     13          1           0        0.355594    0.611054   -0.524773
     14          1           0       -3.095389    2.638539    0.992947
     15          1           0       -0.589713   -1.004022   -0.516666
     16          1           0       -5.289077   -1.109432    1.011778
     17         17           0       -4.536321   -3.785113    0.261260
     18         17           0        0.851224    5.419628    0.215035
     19         17           0       -1.530623   -3.717692   -0.716331
     20         17           0        2.259997    2.758662   -0.748847
     21         17           0       -4.348167    1.604238    1.211441
     22         17           0       -2.154479    5.352210    1.192611
 ---------------------------------------------------------------------
                    Distance matrix (angstroms):
                    1          2          3          4          5
     1  C    0.000000
     2  C    1.401400   0.000000
     3  C    2.427296   1.401400   0.000000
     4  C    2.802800   2.427296   1.401400   0.000000
     5  C    2.427296   2.802800   2.427296   1.401400   0.000000
     6  C    1.401400   2.427296   2.802800   2.427296   1.401400
     7  C    1.540000   2.548270   3.838989   4.342800   3.838989
     8  C    2.548270   2.941400   4.342800   5.187469   4.975106
     9  C    3.838989   4.342800   5.744200   6.558176   6.235992
    10  C    4.342800   5.187469   6.558176   7.145600   6.558176
    11  C    3.838989   4.975106   6.235992   6.558176   5.744200
    12  C    2.548270   3.813607   4.975106   5.187469   4.342800
    13  H    2.146700   1.070000   2.146700   3.396345   3.872800
    14  H    2.146700   3.396345   3.872800   3.396345   2.146700
    15  H    2.736837   2.578650   3.918930   4.990735   5.074276
    16  H    4.693509   5.919617   7.118798   7.300676   6.347206
    17  Cl   6.102800   6.910901   8.294174   8.905600   8.294174
    18  Cl   4.562800   4.048303   2.743718   1.760000   2.743718
    19  Cl   5.286324   5.440665   6.797295   7.819846   7.713260
    20  Cl   4.048303   2.743718   1.760000   2.743718   4.048303
    21  Cl   3.057342   4.456874   5.254079   4.983028   3.783409
    22  Cl   4.048303   4.562800   4.048303   2.743718   1.760000
                    6          7          8          9         10
     6  C    0.000000
     7  C    2.548270   0.000000
     8  C    3.813607   1.401400   0.000000
     9  C    4.975106   2.427296   1.401400   0.000000
    10  C    5.187469   2.802800   2.427296   1.401400   0.000000
    11  C    4.342800   2.427296   2.802800   2.427296   1.401400
    12  C    2.941400   1.401400   2.427296   2.802800   2.427296
    13  H    3.396345   2.736837   2.578650   3.918930   4.990735
    14  H    1.070000   2.736837   4.127917   5.074276   4.990735
    15  H    4.127917   2.146700   1.070000   2.146700   3.396345
    16  H    4.965039   3.396345   3.872800   3.396345   2.146700
    17  Cl   6.910901   4.562800   4.048303   2.743718   1.760000
    18  Cl   4.048303   6.102800   6.910901   8.294174   8.905600
    19  Cl   6.549198   4.048303   2.743718   1.760000   2.743718
    20  Cl   4.562800   5.286324   5.440665   6.797295   7.819846
    21  Cl   2.563702   2.743718   4.048303   4.562800   4.048303
    22  Cl   2.743718   5.286324   6.549198   7.713260   7.819846
                   11         12         13         14         15
    11  C    0.000000
    12  C    1.401400   0.000000
    13  H    5.074276   4.127917   0.000000
    14  H    3.918930   2.578650   4.280590   0.000000
    15  H    3.872800   3.396345   1.871400   4.671787   0.000000
    16  H    1.070000   2.146700   6.097816   4.342800   4.942800
    17  Cl   2.743718   4.048303   6.623817   6.623817   4.890332
    18  Cl   8.294174   6.910901   4.890332   4.890332   6.623817
    19  Cl   4.048303   4.562800   4.725732   6.765486   2.879094
    20  Cl   7.713260   6.549198   2.879094   5.632800   4.725732
    21  Cl   2.743718   1.760000   5.111382   1.639199   4.890333
    22  Cl   6.797295   5.440665   5.632800   2.879094   6.765486
                   16         17         18         19         20
    16  H    0.000000
    17  Cl   2.879094   0.000000
    18  Cl   8.998151  10.665600   0.000000
    19  Cl   4.890332   3.161400   9.488480   0.000000
    20  Cl   8.663168   9.488480   3.161400   7.504200   0.000000
    21  Cl   2.879094   5.475705   6.525618   6.322800   6.988795
    22  Cl   7.184095   9.488480   3.161400   9.289584   5.475705
                   21         22
    21  Cl   0.000000
    22  Cl   4.342800   0.000000
 Stoichiometry    C12H4Cl6
 Framework group  C1[X(C12H4Cl6)]
 Deg. of freedom    60
 Full point group                 C1      NOp   1
 Largest Abelian subgroup         C1      NOp   1
 Largest concise Abelian subgroup C1      NOp   1
                         Standard orientation:                         
 ---------------------------------------------------------------------
 Center     Atomic      Atomic             Coordinates (Angstroms)
 Number     Number       Type             X           Y           Z
 ---------------------------------------------------------------------
      1          6           0        0.479854    0.044929    0.000002
      2          6           0        1.064363    1.318613    0.000001
      3          6           0        2.459660    1.449256   -0.000000
      4          6           0        3.270449    0.306215   -0.000001
      5          6           0        2.685940   -0.967470    0.000002
      6          6           0        1.290643   -1.098112    0.000003
      7          6           0       -1.053440   -0.098634    0.000003
      8          6           0       -1.864228    1.044407    0.000003
      9          6           0       -3.259525    0.913764    0.000002
     10          6           0       -3.844034   -0.359920    0.000000
     11          6           0       -3.033246   -1.502961   -0.000001
     12          6           0       -1.637948   -1.372319   -0.000000
     13          1           0        0.445308    2.191351   -0.000001
     14          1           0        0.844357   -2.070599    0.000005
     15          1           0       -1.417943    2.016893    0.000002
     16          1           0       -3.479531   -2.475448   -0.000005
     17         17           0       -5.596370   -0.523992   -0.000004
     18         17           0        5.022784    0.470287   -0.000003
     19         17           0       -4.277784    2.349295    0.000004
     20         17           0        3.193737    3.048860   -0.000003
     21         17           0       -0.619690   -2.807850   -0.000004
     22         17           0        3.704199   -2.403001    0.000005
 ---------------------------------------------------------------------
 Rotational constants (GHZ):           0.4283470           0.1172944           0.0920801
 Standard basis: 6-311+G(d,p) (5D, 7F)
 There are   486 symmetry adapted cartesian basis functions of A   symmetry.
 There are   468 symmetry adapted basis functions of A   symmetry.
   468 basis functions,   782 primitive gaussians,   486 cartesian basis functions
    89 alpha electrons       89 beta electrons
       nuclear repulsion energy      1950.0383973294 Hartrees.
 NAtoms=   22 NActive=   22 NUniq=   22 SFac= 1.00D+00 NAtFMM=   60 NAOKFM=F Big=F
 Integral buffers will be    131072 words long.
 Raffenetti 2 integral format.
 Two-electron integral symmetry is turned on.
 One-electron integrals computed using PRISM.
 NBasis=   468 RedAO= T EigKep=  1.54D-06  NBF=   468
 NBsUse=   461 1.00D-06 EigRej=  9.12D-07 NBFU=   461
 ExpMin= 4.38D-02 ExpMax= 1.06D+05 ExpMxC= 3.62D+03 IAcc=3 IRadAn=         5 AccDes= 0.00D+00
 Harris functional with IExCor=  402 and IRadAn=       5 diagonalized for initial guess.
 HarFok:  IExCor=  402 AccDes= 0.00D+00 IRadAn=         5 IDoV= 1 UseB2=F ITyADJ=14
 ICtDFT=  3500011 ScaDFX=  1.000000  1.000000  1.000000  1.000000
 FoFCou: FMM=F IPFlag=           0 FMFlag=      100000 FMFlg1=           0
         NFxFlg=           0 DoJE=T BraDBF=F KetDBF=T FulRan=T
         wScrn=  0.000000 ICntrl=       500 IOpCl=  0 I1Cent=   200000004 NGrid=           0
         NMat0=    1 NMatS0=      1 NMatT0=    0 NMatD0=    1 NMtDS0=    0 NMtDT0=    0
 Petite list used in FoFCou.
 Requested convergence on RMS density matrix=1.00D-08 within  32 cycles.
 Requested convergence on MAX density matrix=1.00D-06.
 Requested convergence on             energy=1.00D-06.
 No special actions if energy rises.
 SCF Done:  E(RB3LYP) =  -3221.07410485     A.U. after   16 cycles
            NFock= 16  Conv=0.75D-08     -V/T= 2.0026
 QCSCF skips out because SCF is already converged.

 **********************************************************************

            Population analysis using the SCF Density.

 **********************************************************************

 Orbital symmetries:
       Occupied  (A) (A) (A) (A) (A) (A) (A) (A) (A) (A) (A) (A)
                 (A) (A) (A) (A) (A) (A) (A) (A) (A) (A) (A) (A)
                 (A) (A) (A) (A) (A) (A) (A) (A) (A) (A) (A) (A)
                 (A) (A) (A) (A) (A) (A) (A) (A) (A) (A) (A) (A)
                 (A) (A) (A) (A) (A) (A) (A) (A) (A) (A) (A) (A)
                 (A) (A) (A) (A) (A) (A) (A) (A) (A) (A) (A) (A)
                 (A) (A) (A) (A) (A) (A) (A) (A) (A) (A) (A) (A)
                 (A) (A) (A) (A) (A)
       Virtual   (A) (A) (A) (A) (A) (A) (A) (A) (A) (A) (A) (A)
                 (A) (A) (A) (A) (A) (A) (A) (A) (A) (A) (A) (A)
                 (A) (A) (A) (A) (A) (A) (A) (A) (A) (A) (A) (A)
                 (A) (A) (A) (A) (A) (A) (A) (A) (A) (A) (A) (A)
                 (A) (A) (A) (A) (A) (A) (A) (A) (A) (A) (A) (A)
                 (A) (A) (A) (A) (A) (A) (A) (A) (A) (A) (A) (A)
                 (A) (A) (A) (A) (A) (A) (A) (A) (A) (A) (A) (A)
                 (A) (A) (A) (A) (A) (A) (A) (A) (A) (A) (A) (A)
                 (A) (A) (A) (A) (A) (A) (A) (A) (A) (A) (A) (A)
                 (A) (A) (A) (A) (A) (A) (A) (A) (A) (A) (A) (A)
                 (A) (A) (A) (A) (A) (A) (A) (A) (A) (A) (A) (A)
                 (A) (A) (A) (A) (A) (A) (A) (A) (A) (A) (A) (A)
                 (A) (A) (A) (A) (A) (A) (A) (A) (A) (A) (A) (A)
                 (A) (A) (A) (A) (A) (A) (A) (A) (A) (A) (A) (A)
                 (A) (A) (A) (A) (A) (A) (A) (A) (A) (A) (A) (A)
                 (A) (A) (A) (A) (A) (A) (A) (A) (A) (A) (A) (A)
                 (A) (A) (A) (A) (A) (A) (A) (A) (A) (A) (A) (A)
                 (A) (A) (A) (A) (A) (A) (A) (A) (A) (A) (A) (A)
                 (A) (A) (A) (A) (A) (A) (A) (A) (A) (A) (A) (A)
                 (A) (A) (A) (A) (A) (A) (A) (A) (A) (A) (A) (A)
                 (A) (A) (A) (A) (A) (A) (A) (A) (A) (A) (A) (A)
                 (A) (A) (A) (A) (A) (A) (A) (A) (A) (A) (A) (A)
                 (A) (A) (A) (A) (A) (A) (A) (A) (A) (A) (A) (A)
                 (A) (A) (A) (A) (A) (A) (A) (A) (A) (A) (A) (A)
                 (A) (A) (A) (A) (A) (A) (A) (A) (A) (A) (A) (A)
                 (A) (A) (A) (A) (A) (A) (A) (A) (A) (A) (A) (A)
                 (A) (A) (A) (A) (A) (A) (A) (A) (A) (A) (A) (A)
                 (A) (A) (A) (A) (A) (A) (A) (A) (A) (A) (A) (A)
                 (A) (A) (A) (A) (A) (A) (A) (A) (A) (A) (A) (A)
                 (A) (A) (A) (A) (A) (A) (A) (A) (A) (A) (A) (A)
                 (A) (A) (A) (A) (A) (A) (A) (A) (A) (A) (A) (A)
 The electronic state is 1-A.
 Alpha  occ. eigenvalues -- -101.58985-101.58249-101.58150-101.57546-101.57317
 Alpha  occ. eigenvalues -- -101.57151 -10.28316 -10.28295 -10.28192 -10.27496
 Alpha  occ. eigenvalues --  -10.27363 -10.27020 -10.24584 -10.23462 -10.23438
 Alpha  occ. eigenvalues --  -10.23089 -10.21916 -10.19542  -9.50762  -9.49666
 Alpha  occ. eigenvalues --   -9.49575  -9.48970  -9.48746  -9.48583  -7.27170
 Alpha  occ. eigenvalues --   -7.26206  -7.26199  -7.26167  -7.26070  -7.25468
 Alpha  occ. eigenvalues --   -7.25235  -7.25142  -7.25085  -7.25083  -7.25053
 Alpha  occ. eigenvalues --   -7.24995  -7.24447  -7.24391  -7.24229  -7.24169
 Alpha  occ. eigenvalues --   -7.24071  -7.23985  -0.95613  -0.94252  -0.92490
 Alpha  occ. eigenvalues --   -0.89356  -0.88304  -0.87103  -0.86191  -0.84872
 Alpha  occ. eigenvalues --   -0.79690  -0.76837  -0.76217  -0.74562  -0.67395
 Alpha  occ. eigenvalues --   -0.64654  -0.63945  -0.61597  -0.55618  -0.54853
 Alpha  occ. eigenvalues --   -0.53782  -0.51334  -0.50602  -0.49430  -0.47557
 Alpha  occ. eigenvalues --   -0.46877  -0.46698  -0.46088  -0.44457  -0.43593
 Alpha  occ. eigenvalues --   -0.42720  -0.41747  -0.41046  -0.40625  -0.38258
 Alpha  occ. eigenvalues --   -0.37587  -0.36406  -0.35626  -0.35161  -0.35112
 Alpha  occ. eigenvalues --   -0.34028  -0.33936  -0.33121  -0.31666  -0.30242
 Alpha  occ. eigenvalues --   -0.29959  -0.28280  -0.27189  -0.25861
 Alpha virt. eigenvalues --   -0.08524  -0.06954  -0.05059  -0.04313  -0.03961
 Alpha virt. eigenvalues --   -0.02252  -0.01761  -0.00910   0.00456   0.01143
 Alpha virt. eigenvalues --    0.01366   0.01725   0.02422   0.03003   0.03643
 Alpha virt. eigenvalues --    0.03719   0.04482   0.04719   0.05713   0.05760
 Alpha virt. eigenvalues --    0.06216   0.06760   0.07199   0.07908   0.07925
 Alpha virt. eigenvalues --    0.08252   0.08715   0.08900   0.09053   0.09605
 Alpha virt. eigenvalues --    0.09768   0.09967   0.10428   0.11157   0.11354
 Alpha virt. eigenvalues --    0.12069   0.12074   0.12504   0.12936   0.12966
 Alpha virt. eigenvalues --    0.13228   0.13413   0.13772   0.14452   0.14871
 Alpha virt. eigenvalues --    0.14942   0.16040   0.16273   0.16707   0.17349
 Alpha virt. eigenvalues --    0.17552   0.17736   0.17898   0.18017   0.18224
 Alpha virt. eigenvalues --    0.18328   0.19398   0.19525   0.19861   0.20456
 Alpha virt. eigenvalues --    0.20789   0.21007   0.21756   0.21802   0.22123
 Alpha virt. eigenvalues --    0.22563   0.23042   0.23405   0.23785   0.25054
 Alpha virt. eigenvalues --    0.25141   0.25572   0.25830   0.26105   0.26729
 Alpha virt. eigenvalues --    0.27526   0.28169   0.28385   0.29237   0.29598
 Alpha virt. eigenvalues --    0.30130   0.31207   0.31557   0.31593   0.32700
 Alpha virt. eigenvalues --    0.33862   0.34060   0.34504   0.35968   0.37538
 Alpha virt. eigenvalues --    0.38699   0.40613   0.42264   0.42891   0.43171
 Alpha virt. eigenvalues --    0.43373   0.43625   0.43716   0.44807   0.44900
 Alpha virt. eigenvalues --    0.45633   0.45877   0.46133   0.46282   0.46656
 Alpha virt. eigenvalues --    0.47061   0.47379   0.48643   0.48879   0.50119
 Alpha virt. eigenvalues --    0.50364   0.50425   0.51460   0.52515   0.53166
 Alpha virt. eigenvalues --    0.54804   0.55880   0.56453   0.57124   0.57954
 Alpha virt. eigenvalues --    0.58216   0.58564   0.59055   0.60011   0.60933
 Alpha virt. eigenvalues --    0.61045   0.62005   0.62342   0.63238   0.63882
 Alpha virt. eigenvalues --    0.64262   0.64693   0.65885   0.66672   0.66847
 Alpha virt. eigenvalues --    0.67586   0.69061   0.71908   0.73278   0.74684
 Alpha virt. eigenvalues --    0.77500   0.78047   0.80821   0.81395   0.82116
 Alpha virt. eigenvalues --    0.82606   0.82984   0.83219   0.83543   0.83894
 Alpha virt. eigenvalues --    0.83915   0.84389   0.84585   0.84858   0.85218
 Alpha virt. eigenvalues --    0.85389   0.85552   0.86218   0.86529   0.86698
 Alpha virt. eigenvalues --    0.87262   0.88144   0.89349   0.89627   0.89770
 Alpha virt. eigenvalues --    0.90197   0.90885   0.91374   0.92411   0.92880
 Alpha virt. eigenvalues --    0.93194   0.94026   0.94135   0.94228   0.94517
 Alpha virt. eigenvalues --    0.94990   0.95887   0.96708   0.97095   0.97469
 Alpha virt. eigenvalues --    0.98225   0.99152   1.00641   1.01413   1.04610
 Alpha virt. eigenvalues --    1.04885   1.06311   1.07315   1.09127   1.10706
 Alpha virt. eigenvalues --    1.11260   1.13144   1.17317   1.19561   1.20113
 Alpha virt. eigenvalues --    1.21298   1.22608   1.23000   1.23780   1.25177
 Alpha virt. eigenvalues --    1.25443   1.26530   1.26590   1.27898   1.28005
 Alpha virt. eigenvalues --    1.28868   1.31453   1.32306   1.33441   1.36598
 Alpha virt. eigenvalues --    1.38821   1.40659   1.42863   1.46567   1.47823
 Alpha virt. eigenvalues --    1.49685   1.53127   1.53185   1.55581   1.57789
 Alpha virt. eigenvalues --    1.58129   1.59257   1.61364   1.64384   1.65348
 Alpha virt. eigenvalues --    1.67012   1.67923   1.70778   1.74308   1.76115
 Alpha virt. eigenvalues --    1.76537   1.80553   1.81829   1.83168   1.83505
 Alpha virt. eigenvalues --    1.85436   1.85566   1.87133   1.87491   1.91036
 Alpha virt. eigenvalues --    1.93240   1.94464   1.95643   1.96211   1.96728
 Alpha virt. eigenvalues --    1.98851   2.00098   2.03647   2.05157   2.08479
 Alpha virt. eigenvalues --    2.10545   2.16381   2.17617   2.19309   2.22052
 Alpha virt. eigenvalues --    2.22693   2.23166   2.23368   2.25447   2.26377
 Alpha virt. eigenvalues --    2.26843   2.27421   2.28336   2.29232   2.32034
 Alpha virt. eigenvalues --    2.32177   2.33258   2.33862   2.38378   2.40727
 Alpha virt. eigenvalues --    2.42273   2.43518   2.44614   2.44698   2.49184
 Alpha virt. eigenvalues --    2.50514   2.51010   2.52013   2.54997   2.57518
 Alpha virt. eigenvalues --    2.57761   2.59085   2.61046   2.61123   2.62946
 Alpha virt. eigenvalues --    2.65553   2.69865   2.71171   2.71237   2.73066
 Alpha virt. eigenvalues --    2.73729   2.73843   2.77043   2.78115   2.79867
 Alpha virt. eigenvalues --    2.80262   2.81840   2.84424   2.89612   2.92258
 Alpha virt. eigenvalues --    2.93126   2.99148   3.03857   3.05712   3.05803
 Alpha virt. eigenvalues --    3.10601   3.10939   3.13946   3.15626   3.16187
 Alpha virt. eigenvalues --    3.21026   3.22127   3.25320   3.32669   3.38298
 Alpha virt. eigenvalues --    3.39807   3.47386   3.50914   3.61529   3.68219
 Alpha virt. eigenvalues --    3.71708   3.73299   3.82422   3.88685   4.00983
 Alpha virt. eigenvalues --    4.11766   4.17688   4.43308   4.78165   4.82728
 Alpha virt. eigenvalues --    9.72172   9.74528   9.78411   9.78813   9.80459
 Alpha virt. eigenvalues --    9.86676  23.34154  23.48215  23.78657  23.83485
 Alpha virt. eigenvalues --   23.84161  23.86835  23.93301  23.95472  24.00620
 Alpha virt. eigenvalues --   24.02775  24.06504  24.09646  25.76125  25.76961
 Alpha virt. eigenvalues --   25.80386  25.83101  25.85550  25.88923  26.08758
 Alpha virt. eigenvalues --   26.10284  26.10839  26.14914  26.17954  26.46797
 Alpha virt. eigenvalues --   26.49583  26.61526  26.65233  26.75068  26.80905
 Alpha virt. eigenvalues --   26.85823 215.70917 215.73379 215.77901 215.78366
 Alpha virt. eigenvalues --  215.80188 215.89137
          Condensed to atoms (all electrons):
               1          2          3          4          5          6
     1  C   16.781612  -0.271800  -3.787020   2.455511  -2.349755  -0.680403
     2  C   -0.271800  10.616556   1.928128  -5.795619   1.909897   1.939082
     3  C   -3.787020   1.928128  16.439885  -5.651094  -1.603213   3.887248
     4  C    2.455511  -5.795619  -5.651094  24.633896  -1.127813  -6.462906
     5  C   -2.349755   1.909897  -1.603213  -1.127813  12.770434  -1.154465
     6  C   -0.680403   1.939082   3.887248  -6.462906  -1.154465  13.279482
     7  C    4.756504  -0.475070  -1.987533  -1.391009  -1.574530   0.241792
     8  C   -2.491276  -1.499204  -0.479818  -0.269189  -1.276857  -1.465645
     9  C   -2.146248   0.174645   0.434341  -0.247218  -0.545600  -0.922741
    10  C    0.031549  -0.291457   0.034343  -0.014370   0.048215   0.099136
    11  C   -3.554667  -0.752224  -0.859719   0.067963   1.356663  -0.690271
    12  C   -0.443629  -1.394010  -2.233914   0.082678   0.287116  -0.992671
    13  H    0.049549   0.313718  -0.168726   0.024489   0.004161  -0.051498
    14  H   -0.212792  -0.034657  -0.088552   0.084469   0.163357   0.277318
    15  H    0.073896   0.090813   0.026044   0.003976  -0.003910   0.028319
    16  H    0.017993   0.003127   0.000271   0.000250  -0.000542   0.003255
    17  Cl  -0.026936  -0.039130  -0.001244  -0.002581   0.001676  -0.023611
    18  Cl   0.019108  -0.462078  -0.033922   0.163265   0.044161  -0.422918
    19  Cl  -0.202438  -0.023793  -0.011373  -0.008063  -0.008546  -0.072783
    20  Cl  -0.861001   0.372257   0.103115  -0.246415  -0.160003   0.312569
    21  Cl   0.355978   0.042843   0.233824  -0.070604  -0.657578  -0.637057
    22  Cl  -0.614792   0.253786  -0.089985  -0.381723  -0.092963   0.486345
               7          8          9         10         11         12
     1  C    4.756504  -2.491276  -2.146248   0.031549  -3.554667  -0.443629
     2  C   -0.475070  -1.499204   0.174645  -0.291457  -0.752224  -1.394010
     3  C   -1.987533  -0.479818   0.434341   0.034343  -0.859719  -2.233914
     4  C   -1.391009  -0.269189  -0.247218  -0.014370   0.067963   0.082678
     5  C   -1.574530  -1.276857  -0.545600   0.048215   1.356663   0.287116
     6  C    0.241792  -1.465645  -0.922741   0.099136  -0.690271  -0.992671
     7  C   17.668290  -0.005931  -3.394410   0.154365  -4.523920  -1.793471
     8  C   -0.005931  13.977148   4.610216  -6.952450   0.608904   0.627456
     9  C   -3.394410   4.610216  22.319611  -6.194034  -2.211582  -5.791951
    10  C    0.154365  -6.952450  -6.194034  26.324773   0.497207  -6.286966
    11  C   -4.523920   0.608904  -2.211582   0.497207  17.846660  -1.645560
    12  C   -1.793471   0.627456  -5.791951  -6.286966  -1.645560  26.260211
    13  H    0.067813   0.086583  -0.026537  -0.005610   0.010329   0.037991
    14  H   -0.088048  -0.001157  -0.006116   0.049554   0.203071   0.092133
    15  H    0.047510   0.216142  -0.102047   0.062800  -0.049682  -0.054539
    16  H    0.112399  -0.021634  -0.039508   0.042067   0.282211  -0.029122
    17  Cl   0.018567  -0.046309   0.664346  -0.789998  -0.099231  -0.432078
    18  Cl  -0.050528  -0.030035   0.002534  -0.002184  -0.005469  -0.042258
    19  Cl  -0.876181   0.633075  -0.917392  -0.247936   0.490637   0.437262
    20  Cl  -0.215958  -0.048358   0.029264   0.004525  -0.018719  -0.101217
    21  Cl   0.085322   0.389993   0.252284  -0.642130  -0.471017  -0.378255
    22  Cl  -0.182486  -0.100972  -0.019562  -0.001294   0.032439   0.031296
              13         14         15         16         17         18
     1  C    0.049549  -0.212792   0.073896   0.017993  -0.026936   0.019108
     2  C    0.313718  -0.034657   0.090813   0.003127  -0.039130  -0.462078
     3  C   -0.168726  -0.088552   0.026044   0.000271  -0.001244  -0.033922
     4  C    0.024489   0.084469   0.003976   0.000250  -0.002581   0.163265
     5  C    0.004161   0.163357  -0.003910  -0.000542   0.001676   0.044161
     6  C   -0.051498   0.277318   0.028319   0.003255  -0.023611  -0.422918
     7  C    0.067813  -0.088048   0.047510   0.112399   0.018567  -0.050528
     8  C    0.086583  -0.001157   0.216142  -0.021634  -0.046309  -0.030035
     9  C   -0.026537  -0.006116  -0.102047  -0.039508   0.664346   0.002534
    10  C   -0.005610   0.049554   0.062800   0.042067  -0.789998  -0.002184
    11  C    0.010329   0.203071  -0.049682   0.282211  -0.099231  -0.005469
    12  C    0.037991   0.092133  -0.054539  -0.029122  -0.432078  -0.042258
    13  H    0.537832  -0.000078   0.003177  -0.000001   0.000174  -0.001463
    14  H   -0.000078   0.673136  -0.000149   0.000062   0.000362   0.001357
    15  H    0.003177  -0.000149   0.523837   0.000079  -0.001159   0.000146
    16  H   -0.000001   0.000062   0.000079   0.486203  -0.006181   0.000000
    17  Cl   0.000174   0.000362  -0.001159  -0.006181  17.452011  -0.000008
    18  Cl  -0.001463   0.001357   0.000146   0.000000  -0.000008  17.581964
    19  Cl   0.000121  -0.000043  -0.018333  -0.000426  -0.188104   0.000020
    20  Cl  -0.020516   0.000813   0.000263   0.000001   0.000005  -0.221539
    21  Cl  -0.000245  -0.228846   0.000233  -0.021907  -0.026743   0.001605
    22  Cl   0.000893  -0.028879   0.000049  -0.000025   0.000040  -0.221566
              19         20         21         22
     1  C   -0.202438  -0.861001   0.355978  -0.614792
     2  C   -0.023793   0.372257   0.042843   0.253786
     3  C   -0.011373   0.103115   0.233824  -0.089985
     4  C   -0.008063  -0.246415  -0.070604  -0.381723
     5  C   -0.008546  -0.160003  -0.657578  -0.092963
     6  C   -0.072783   0.312569  -0.637057   0.486345
     7  C   -0.876181  -0.215958   0.085322  -0.182486
     8  C    0.633075  -0.048358   0.389993  -0.100972
     9  C   -0.917392   0.029264   0.252284  -0.019562
    10  C   -0.247936   0.004525  -0.642130  -0.001294
    11  C    0.490637  -0.018719  -0.471017   0.032439
    12  C    0.437262  -0.101217  -0.378255   0.031296
    13  H    0.000121  -0.020516  -0.000245   0.000893
    14  H   -0.000043   0.000813  -0.228846  -0.028879
    15  H   -0.018333   0.000263   0.000233   0.000049
    16  H   -0.000426   0.000001  -0.021907  -0.000025
    17  Cl  -0.188104   0.000005  -0.026743   0.000040
    18  Cl   0.000020  -0.221539   0.001605  -0.221566
    19  Cl  17.475255  -0.000221   0.004988  -0.000157
    20  Cl  -0.000221  17.500137   0.002834   0.008373
    21  Cl   0.004988   0.002834  18.157456  -0.066671
    22  Cl  -0.000157   0.008373  -0.066671  17.488902
 Mulliken charges:
               1
     1  C   -0.898945
     2  C   -0.605810
     3  C   -0.091086
     4  C    0.152107
     5  C   -0.029905
     6  C   -0.977575
     7  C   -0.593486
     8  C   -0.460682
     9  C    0.077707
    10  C    0.079896
    11  C   -0.514021
    12  C   -0.236505
    13  H    0.137844
    14  H    0.143688
    15  H    0.152533
    16  H    0.171428
    17  Cl   0.546133
    18  Cl   0.679809
    19  Cl   0.534429
    20  Cl   0.559791
    21  Cl   0.673695
    22  Cl   0.498953
 Sum of Mulliken charges =  -0.00000
 Mulliken charges with hydrogens summed into heavy atoms:
               1
     1  C   -0.898945
     2  C   -0.467966
     3  C   -0.091086
     4  C    0.152107
     5  C   -0.029905
     6  C   -0.833887
     7  C   -0.593486
     8  C   -0.308149
     9  C    0.077707
    10  C    0.079896
    11  C   -0.342593
    12  C   -0.236505
    17  Cl   0.546133
    18  Cl   0.679809
    19  Cl   0.534429
    20  Cl   0.559791
    21  Cl   0.673695
    22  Cl   0.498953
 Electronic spatial extent (au):  <R**2>=           9971.3841
 Charge=             -0.0000 electrons
 Dipole moment (field-independent basis, Debye):
    X=             -1.8601    Y=             -0.5431    Z=             -0.0000  Tot=              1.9378
 Quadrupole moment (field-independent basis, Debye-Ang):
   XX=           -157.8280   YY=           -141.7102   ZZ=           -147.3724
   XY=              2.1661   XZ=              0.0000   YZ=              0.0000
 Traceless Quadrupole moment (field-independent basis, Debye-Ang):
   XX=             -8.8578   YY=              7.2600   ZZ=              1.5978
   XY=              2.1661   XZ=              0.0000   YZ=              0.0000
 Octapole moment (field-independent basis, Debye-Ang**2):
  XXX=             -1.1608  YYY=             -4.0495  ZZZ=             -0.0000  XYY=             -7.7523
  XXY=            -16.3608  XXZ=             -0.0001  XZZ=              3.4503  YZZ=             -0.3422
  YYZ=             -0.0000  XYZ=             -0.0000
 Hexadecapole moment (field-independent basis, Debye-Ang**3):
 XXXX=         -10104.1377 YYYY=          -2756.3763 ZZZZ=           -170.6605 XXXY=             30.5528
 XXXZ=              0.0003 YYYX=            -26.5715 YYYZ=              0.0000 ZZZX=              0.0000
 ZZZY=             -0.0000 XXYY=          -2109.1535 XXZZ=          -1733.4625 YYZZ=           -515.4923
 XXYZ=              0.0001 YYXZ=              0.0001 ZZXY=             -5.4477
 N-N= 1.950038397329D+03 E-N=-1.152851084052D+04  KE= 3.212694951956D+03
 Calling FoFJK, ICntrl=      2127 FMM=F ISym2X=0 I1Cent= 0 IOpClX= 0 NMat=1 NMatS=1 NMatT=0.
 ***** Axes restored to original set *****
 -------------------------------------------------------------------
 Center     Atomic                   Forces (Hartrees/Bohr)
 Number     Number              X              Y              Z
 -------------------------------------------------------------------
      1        6          -0.010418029   -0.020901060   -0.000493242
      2        6          -0.000618109    0.016470439    0.003297067
      3        6          -0.003808758   -0.008164287   -0.000278409
      4        6           0.005239246    0.014308672    0.000961030
      5        6           0.004728562   -0.010445977   -0.003519675
      6        6           0.045018684    0.031551418   -0.008906159
      7        6           0.018791420    0.035794078    0.000531649
      8        6          -0.022359163   -0.008847244    0.005704861
      9        6           0.005638475    0.001867259   -0.001507007
     10        6          -0.002123838    0.001337238    0.000950937
     11        6           0.009390470    0.003664089   -0.002405460
     12        6           0.004702709   -0.016320682   -0.004614619
     13        1           0.007392323   -0.002247132   -0.002857523
     14        1           0.038565529    0.027550889   -0.007531655
     15        1           0.005145067   -0.003563095   -0.002364377
     16        1          -0.007962737   -0.000881666    0.002457721
     17       17           0.000146501    0.009240537    0.001687132
     18       17          -0.003230584   -0.006626356   -0.000180145
     19       17           0.000295448    0.008330855    0.001467293
     20       17          -0.007036322   -0.003950059    0.001576285
     21       17          -0.087220510   -0.060370006    0.017397725
     22       17          -0.000276384   -0.007797910   -0.001373431
 -------------------------------------------------------------------
 Cartesian Forces:  Max     0.087220510 RMS     0.018040510

 GradGradGradGradGradGradGradGradGradGradGradGradGradGradGradGradGradGrad
 Berny optimization.
 FormGI is forming the generalized inverse of G from B-inverse, IUseBI=4.
 Internal  Forces:  Max     0.274218716 RMS     0.049903549
 Search for a local minimum.
 Step number   1 out of a maximum of  121
 All quantities printed in internal units (Hartrees-Bohrs-Radians)
 Mixed Optimization -- RFO/linear search
 Second derivative matrix not updated -- first step.
 ITU=  0
     Eigenvalues ---    0.00237   0.01506   0.01506   0.02070   0.02070
     Eigenvalues ---    0.02070   0.02070   0.02070   0.02070   0.02070
     Eigenvalues ---    0.02070   0.02070   0.02070   0.02070   0.02070
     Eigenvalues ---    0.02070   0.02070   0.02070   0.02070   0.16000
     Eigenvalues ---    0.16000   0.16000   0.16000   0.23000   0.23478
     Eigenvalues ---    0.23493   0.23980   0.25000   0.25000   0.25000
     Eigenvalues ---    0.25000   0.25000   0.25000   0.25000   0.25000
     Eigenvalues ---    0.25000   0.25000   0.28519   0.29539   0.29539
     Eigenvalues ---    0.29539   0.29539   0.29539   0.29539   0.37230
     Eigenvalues ---    0.37230   0.37230   0.37230   0.41465   0.41554
     Eigenvalues ---    0.41716   0.41797   0.45389   0.45389   0.45389
     Eigenvalues ---    0.45389   0.45389   0.45389   0.45389   0.45389
 RFO step:  Lambda=-4.11523478D-01 EMin= 2.36824243D-03
 Linear search not attempted -- first point.
 Maximum step size (   0.300) exceeded in Quadratic search.
    -- Step size scaled by   0.383
 Iteration  1 RMS(Cart)=  0.20393201 RMS(Int)=  0.01026970
 Iteration  2 RMS(Cart)=  0.03894895 RMS(Int)=  0.00033849
 Iteration  3 RMS(Cart)=  0.00061767 RMS(Int)=  0.00004388
 Iteration  4 RMS(Cart)=  0.00000021 RMS(Int)=  0.00004388
 Variable       Old X    -DE/DX   Delta X   Delta X   Delta X     New X
                                 (Linear)    (Quad)   (Total)
    R1        2.64826   0.01423   0.00000   0.00645   0.00649   2.65475
    R2        2.64826   0.01297   0.00000   0.00601   0.00604   2.65430
    R3        2.91018   0.06392   0.00000   0.03510   0.03510   2.94528
    R4        2.64826  -0.01585   0.00000  -0.00712  -0.00712   2.64115
    R5        2.02201   0.00606   0.00000   0.00296   0.00296   2.02496
    R6        2.64826  -0.01851   0.00000  -0.00845  -0.00849   2.63977
    R7        3.32592  -0.00726   0.00000  -0.00393  -0.00393   3.32199
    R8        2.64826  -0.01676   0.00000  -0.00757  -0.00761   2.64065
    R9        3.32592  -0.00735   0.00000  -0.00398  -0.00398   3.32194
   R10        2.64826  -0.00592   0.00000  -0.00251  -0.00251   2.64575
   R11        3.32592  -0.00686   0.00000  -0.00371  -0.00371   3.32221
   R12        2.02201  -0.03958   0.00000  -0.01932  -0.01932   2.00269
   R13        2.64826   0.01669   0.00000   0.00803   0.00813   2.65639
   R14        2.64826   0.11821   0.00000   0.05346   0.05353   2.70179
   R15        2.64826  -0.02403   0.00000  -0.01117  -0.01115   2.63711
   R16        2.02201   0.00555   0.00000   0.00271   0.00271   2.02471
   R17        2.64826  -0.03310   0.00000  -0.01583  -0.01590   2.63236
   R18        3.32592  -0.00733   0.00000  -0.00397  -0.00397   3.32195
   R19        2.64826  -0.03145   0.00000  -0.01455  -0.01465   2.63361
   R20        3.32592  -0.00804   0.00000  -0.00435  -0.00435   3.32157
   R21        2.64826   0.00099   0.00000   0.00099   0.00096   2.64922
   R22        2.02201   0.00835   0.00000   0.00408   0.00408   2.02608
   R23        3.32592  -0.00664   0.00000  -0.00359  -0.00359   3.32232
    A1        2.09440  -0.05782   0.00000  -0.03312  -0.03305   2.06135
    A2        2.09440  -0.12928   0.00000  -0.07492  -0.07496   2.01943
    A3        2.09440   0.18710   0.00000   0.10805   0.10801   2.20241
    A4        2.09440   0.03658   0.00000   0.02195   0.02199   2.11639
    A5        2.09440  -0.01264   0.00000  -0.00720  -0.00722   2.08718
    A6        2.09440  -0.02393   0.00000  -0.01476  -0.01478   2.07962
    A7        2.09440   0.00436   0.00000   0.00175   0.00172   2.09611
    A8        2.09440  -0.00859   0.00000  -0.00459  -0.00457   2.08983
    A9        2.09440   0.00423   0.00000   0.00283   0.00285   2.09724
   A10        2.09440  -0.01962   0.00000  -0.01218  -0.01226   2.08214
   A11        2.09440   0.00882   0.00000   0.00552   0.00555   2.09995
   A12        2.09440   0.01081   0.00000   0.00667   0.00670   2.10110
   A13        2.09440   0.01659   0.00000   0.00927   0.00923   2.10363
   A14        2.09440  -0.00170   0.00000  -0.00082  -0.00080   2.09359
   A15        2.09440  -0.01489   0.00000  -0.00845  -0.00843   2.08597
   A16        2.09440   0.01991   0.00000   0.01233   0.01236   2.10676
   A17        2.09440   0.01748   0.00000   0.01220   0.01218   2.10658
   A18        2.09440  -0.03739   0.00000  -0.02453  -0.02454   2.06985
   A19        2.09440  -0.19835   0.00000  -0.11573  -0.11582   1.97858
   A20        2.09440   0.27422   0.00000   0.15757   0.15748   2.25188
   A21        2.09440  -0.07587   0.00000  -0.04185  -0.04167   2.05273
   A22        2.09440   0.05775   0.00000   0.03468   0.03480   2.12920
   A23        2.09440  -0.02509   0.00000  -0.01481  -0.01487   2.07953
   A24        2.09440  -0.03266   0.00000  -0.01987  -0.01993   2.07446
   A25        2.09440   0.00063   0.00000  -0.00240  -0.00245   2.09195
   A26        2.09440  -0.00736   0.00000  -0.00287  -0.00285   2.09155
   A27        2.09440   0.00673   0.00000   0.00527   0.00530   2.09969
   A28        2.09440  -0.00748   0.00000  -0.00722  -0.00740   2.08700
   A29        2.09440   0.01182   0.00000   0.00828   0.00837   2.10277
   A30        2.09440  -0.00434   0.00000  -0.00106  -0.00097   2.09342
   A31        2.09440   0.03788   0.00000   0.02235   0.02223   2.11662
   A32        2.09440  -0.01966   0.00000  -0.01166  -0.01160   2.08280
   A33        2.09440  -0.01822   0.00000  -0.01069  -0.01063   2.08377
   A34        2.09440  -0.01290   0.00000  -0.00556  -0.00551   2.08888
   A35        2.09440   0.18487   0.00000   0.10596   0.10594   2.20034
   A36        2.09440  -0.17196   0.00000  -0.10040  -0.10043   1.99397
    D1        0.00000   0.00000   0.00000   0.00000   0.00000   0.00000
    D2        3.14159   0.00000   0.00000   0.00000   0.00000   3.14159
    D3       -3.14159   0.00000   0.00000  -0.00000  -0.00000  -3.14159
    D4       -0.00000  -0.00000   0.00000  -0.00000  -0.00000  -0.00000
    D5       -0.00000  -0.00000   0.00000  -0.00000  -0.00000  -0.00000
    D6        3.14159  -0.00000   0.00000  -0.00000  -0.00000   3.14159
    D7        3.14159   0.00000   0.00000   0.00000   0.00000   3.14159
    D8        0.00000  -0.00000   0.00000  -0.00000  -0.00000   0.00000
    D9       -0.00000  -0.00000   0.00000  -0.00000  -0.00000  -0.00000
   D10        3.14159  -0.00000   0.00000  -0.00000  -0.00000   3.14159
   D11        3.14159  -0.00000   0.00000  -0.00000  -0.00000   3.14159
   D12       -0.00000  -0.00000   0.00000  -0.00000  -0.00000  -0.00000
   D13        0.00000  -0.00000   0.00000  -0.00000  -0.00000   0.00000
   D14        3.14159  -0.00000   0.00000  -0.00000  -0.00000   3.14159
   D15       -3.14159  -0.00000   0.00000  -0.00000  -0.00000  -3.14159
   D16        0.00000  -0.00000   0.00000  -0.00000  -0.00000   0.00000
   D17       -0.00000   0.00000   0.00000   0.00000   0.00000  -0.00000
   D18        3.14159   0.00000   0.00000   0.00000   0.00000   3.14159
   D19        3.14159  -0.00000   0.00000  -0.00000  -0.00000   3.14159
   D20        0.00000  -0.00000   0.00000  -0.00000  -0.00000   0.00000
   D21        0.00000   0.00000   0.00000   0.00000   0.00000   0.00000
   D22       -3.14159   0.00000   0.00000   0.00000   0.00000  -3.14159
   D23       -3.14159  -0.00000   0.00000  -0.00000  -0.00000  -3.14159
   D24        0.00000   0.00000   0.00000   0.00000   0.00000   0.00000
   D25       -0.00000   0.00000   0.00000   0.00000   0.00000  -0.00000
   D26        3.14159   0.00000   0.00000   0.00000   0.00000   3.14159
   D27        3.14159   0.00000   0.00000  -0.00000   0.00000   3.14159
   D28       -0.00000   0.00000   0.00000   0.00000   0.00000  -0.00000
   D29        3.14159   0.00000   0.00000   0.00000   0.00000   3.14159
   D30        0.00000   0.00000   0.00000   0.00000   0.00000   0.00000
   D31        0.00000   0.00000   0.00000   0.00000   0.00000   0.00000
   D32       -3.14159  -0.00000   0.00000  -0.00000  -0.00000  -3.14159
   D33       -3.14159   0.00000   0.00000   0.00000   0.00000  -3.14159
   D34        0.00000  -0.00000   0.00000  -0.00000  -0.00000   0.00000
   D35       -0.00000  -0.00000   0.00000  -0.00000  -0.00000  -0.00000
   D36        3.14159  -0.00000   0.00000  -0.00000  -0.00000   3.14159
   D37       -0.00000   0.00000   0.00000  -0.00000  -0.00000  -0.00000
   D38        3.14159  -0.00000   0.00000  -0.00000  -0.00000   3.14159
   D39        3.14159   0.00000   0.00000   0.00000   0.00000   3.14159
   D40       -0.00000   0.00000   0.00000   0.00000   0.00000  -0.00000
   D41       -0.00000  -0.00000   0.00000  -0.00000  -0.00000  -0.00000
   D42       -3.14159  -0.00000   0.00000  -0.00000  -0.00000  -3.14159
   D43        3.14159   0.00000   0.00000   0.00000   0.00000   3.14159
   D44        0.00000   0.00000   0.00000  -0.00000  -0.00000   0.00000
   D45        0.00000   0.00000   0.00000   0.00000   0.00000   0.00000
   D46       -3.14159   0.00000   0.00000   0.00000   0.00000  -3.14159
   D47        3.14159   0.00000   0.00000   0.00000   0.00000   3.14159
   D48        0.00000   0.00000   0.00000   0.00000   0.00000   0.00000
   D49        0.00000   0.00000   0.00000   0.00000   0.00000   0.00000
   D50       -3.14159   0.00000   0.00000   0.00000   0.00000  -3.14159
   D51        3.14159   0.00000   0.00000   0.00000   0.00000   3.14159
   D52       -0.00000   0.00000   0.00000   0.00000   0.00000  -0.00000
         Item               Value     Threshold  Converged?
 Maximum Force            0.274219     0.000450     NO 
 RMS     Force            0.049904     0.000300     NO 
 Maximum Displacement     0.993302     0.001800     NO 
 RMS     Displacement     0.238308     0.001200     NO 
 Predicted change in Energy=-1.458406D-01
 GradGradGradGradGradGradGradGradGradGradGradGradGradGradGradGradGradGrad

                          Input orientation:                          
 ---------------------------------------------------------------------
 Center     Atomic      Atomic             Coordinates (Angstroms)
 Number     Number       Type             X           Y           Z
 ---------------------------------------------------------------------
      1          6           0       -1.591513    1.588696    0.300320
      2          6           0       -0.266855    1.484338   -0.155695
      3          6           0        0.568107    2.603269   -0.220631
      4          6           0        0.091787    3.856495    0.171663
      5          6           0       -1.223727    3.976008    0.627509
      6          6           0       -2.058789    2.854080    0.691915
      7          6           0       -2.406538    0.260340    0.319357
      8          6           0       -1.672459   -0.850597   -0.131135
      9          6           0       -2.227526   -2.129672   -0.188486
     10          6           0       -3.547428   -2.331352    0.208488
     11          6           0       -4.302637   -1.250698    0.660255
     12          6           0       -3.760060    0.040386    0.723976
     13          1           0        0.114179    0.530287   -0.460406
     14          1           0       -3.051001    2.979766    1.042408
     15          1           0       -0.655794   -0.713737   -0.440376
     16          1           0       -5.318150   -1.410308    0.964850
     17         17           0       -4.262953   -3.935480    0.142956
     18         17           0        1.136974    5.267696    0.092359
     19         17           0       -1.257552   -3.479128   -0.761492
     20         17           0        2.219211    2.426894   -0.797719
     21         17           0       -4.873800    1.262938    1.320515
     22         17           0       -1.841032    5.544952    1.125542
 ---------------------------------------------------------------------
                    Distance matrix (angstroms):
                    1          2          3          4          5
     1  C    0.000000
     2  C    1.404834   0.000000
     3  C    2.442275   1.397635   0.000000
     4  C    2.827183   2.421346   1.396908   0.000000
     5  C    2.437536   2.781624   2.411311   1.397374   0.000000
     6  C    1.404597   2.409495   2.792173   2.429090   1.400072
     7  C    1.558575   2.510397   3.824842   4.381298   3.911546
     8  C    2.478478   2.725481   4.117928   5.035967   4.906426
     9  C    3.803906   4.111737   5.497029   6.429862   6.241217
    10  C    4.381872   5.045223   6.439895   7.178767   6.734831
    11  C    3.942322   4.943049   6.273210   6.755228   6.066236
    12  C    2.698026   3.880890   5.117977   5.450181   4.683099
    13  H    2.146700   1.071564   2.135602   3.385805   3.853122
    14  H    2.148459   3.379826   3.851618   3.376976   2.122162
    15  H    2.593336   2.250300   3.542421   4.671241   4.843205
    16  H    4.829436   5.928759   7.222339   7.591823   6.774253
    17  Cl   6.138230   6.740358   8.137971   8.926335   8.489013
    18  Cl   4.585078   4.043027   2.742398   1.757895   2.743675
    19  Cl   5.188623   5.097496   6.373469   7.516839   7.583503
    20  Cl   4.053379   2.735165   1.757920   2.740328   4.035449
    21  Cl   3.452583   4.842743   5.812570   5.718693   4.600440
    22  Cl   4.049101   4.539625   4.033564   2.737985   1.758036
                    6          7          8          9         10
     6  C    0.000000
     7  C    2.643334   0.000000
     8  C    3.814615   1.405701   0.000000
     9  C    5.063730   2.449920   1.395501   0.000000
    10  C    5.416497   2.833864   2.413190   1.392984   0.000000
    11  C    4.678146   2.448395   2.775647   2.408120   1.393645
    12  C    3.288195   1.429727   2.425520   2.808986   2.436407
    13  H    3.383733   2.652342   2.281958   3.554280   4.695078
    14  H    1.059776   2.886765   4.236656   5.319734   5.399058
    15  H    3.997473   2.142691   1.071433   2.130414   3.376277
    16  H    5.374284   3.418364   3.847795   3.376333   2.134446
    17  Cl   7.159456   4.591547   4.037610   2.741124   1.757697
    18  Cl   4.049435   6.138536   6.736199   8.131408   8.927634
    19  Cl   6.547052   4.058574   2.734717   1.757901   2.738939
    20  Cl   4.550032   5.228706   5.131411   6.395853   7.543705
    21  Cl   3.294109   2.845154   4.101573   4.559567   3.989334
    22  Cl   2.734272   5.375580   6.520023   7.795891   8.111038
                   11         12         13         14         15
    11  C    0.000000
    12  C    1.401908   0.000000
    13  H    4.892449   4.080747   0.000000
    14  H    4.428257   3.040414   4.275133   0.000000
    15  H    3.846970   3.400130   1.463166   4.645172   0.000000
    16  H    1.072157   2.142470   5.942009   4.941531   4.919089
    17  Cl   2.734452   4.049444   6.282229   7.078027   4.871499
    18  Cl   8.508898   7.190596   4.877982   4.865836   6.267006
    19  Cl   4.032346   4.566853   4.248259   6.941745   2.848266
    20  Cl   7.627901   6.615336   2.853429   5.609534   4.272810
    21  Cl   2.660927   1.758098   5.346812   2.519413   4.979915
    22  Cl   7.242710   5.843302   5.611146   2.837449   6.559579
                   16         17         18         19         20
    16  H    0.000000
    17  Cl   2.857524   0.000000
    18  Cl   9.328752  10.670531   0.000000
    19  Cl   4.873267   3.171549   9.108773   0.000000
    20  Cl   8.639594   9.131436   3.167591   6.853487   0.000000
    21  Cl   2.733164   5.365009   7.326382   6.316581   7.493499
    22  Cl   7.777649   9.834113   3.164311   9.237715   5.468711
                   21         22
    21  Cl   0.000000
    22  Cl   5.250842   0.000000
 Stoichiometry    C12H4Cl6
 Framework group  C1[X(C12H4Cl6)]
 Deg. of freedom    60
 Full point group                 C1      NOp   1
 Largest Abelian subgroup         C1      NOp   1
 Largest concise Abelian subgroup C1      NOp   1
                         Standard orientation:                         
 ---------------------------------------------------------------------
 Center     Atomic      Atomic             Coordinates (Angstroms)
 Number     Number       Type             X           Y           Z
 ---------------------------------------------------------------------
      1          6           0        0.534066   -0.208312    0.000002
      2          6           0        1.017956    1.110554    0.000001
      3          6           0        2.389388    1.379921   -0.000001
      4          6           0        3.309713    0.329039   -0.000001
      5          6           0        2.843454   -0.988252    0.000002
      6          6           0        1.469280   -1.256294    0.000004
      7          6           0       -1.017185   -0.359239    0.000002
      8          6           0       -1.696990    0.871151    0.000003
      9          6           0       -3.090485    0.945957    0.000003
     10          6           0       -3.847781   -0.223191    0.000001
     11          6           0       -3.204453   -1.459465   -0.000001
     12          6           0       -1.805597   -1.551936   -0.000000
     13          1           0        0.325371    1.928219   -0.000001
     14          1           0        1.149605   -2.266707    0.000005
     15          1           0       -1.130316    1.780463    0.000002
     16          1           0       -3.791103   -2.356884   -0.000005
     17         17           0       -5.603868   -0.147965   -0.000003
     18         17           0        5.035937    0.661224   -0.000003
     19         17           0       -3.882095    2.515533    0.000004
     20         17           0        2.950850    3.045768   -0.000003
     21         17           0       -1.190932   -3.199083   -0.000005
     22         17           0        3.986476   -2.323988    0.000006
 ---------------------------------------------------------------------
 Rotational constants (GHZ):           0.3970766           0.1180986           0.0910257
 Standard basis: 6-311+G(d,p) (5D, 7F)
 There are   486 symmetry adapted cartesian basis functions of A   symmetry.
 There are   468 symmetry adapted basis functions of A   symmetry.
   468 basis functions,   782 primitive gaussians,   486 cartesian basis functions
    89 alpha electrons       89 beta electrons
       nuclear repulsion energy      1929.8752458187 Hartrees.
 NAtoms=   22 NActive=   22 NUniq=   22 SFac= 1.00D+00 NAtFMM=   60 NAOKFM=F Big=F
 Integral buffers will be    131072 words long.
 Raffenetti 2 integral format.
 Two-electron integral symmetry is turned on.
 One-electron integrals computed using PRISM.
 NBasis=   468 RedAO= T EigKep=  1.11D-06  NBF=   468
 NBsUse=   462 1.00D-06 EigRej=  8.14D-07 NBFU=   462
 Initial guess from the checkpoint file:  "./Gau-390912.chk"
 B after Tr=     0.000000    0.000000   -0.000000
         Rot=    0.999961    0.000000   -0.000000    0.008852 Ang=  -1.01 deg.
 ExpMin= 4.38D-02 ExpMax= 1.06D+05 ExpMxC= 3.62D+03 IAcc=3 IRadAn=         5 AccDes= 0.00D+00
 Harris functional with IExCor=  402 and IRadAn=       5 diagonalized for initial guess.
 HarFok:  IExCor=  402 AccDes= 0.00D+00 IRadAn=         5 IDoV= 1 UseB2=F ITyADJ=14
 ICtDFT=  3500011 ScaDFX=  1.000000  1.000000  1.000000  1.000000
 FoFCou: FMM=F IPFlag=           0 FMFlag=      100000 FMFlg1=           0
         NFxFlg=           0 DoJE=T BraDBF=F KetDBF=T FulRan=T
         wScrn=  0.000000 ICntrl=       500 IOpCl=  0 I1Cent=   200000004 NGrid=           0
         NMat0=    1 NMatS0=      1 NMatT0=    0 NMatD0=    1 NMtDS0=    0 NMtDT0=    0
 Petite list used in FoFCou.
 Requested convergence on RMS density matrix=1.00D-08 within  32 cycles.
 Requested convergence on MAX density matrix=1.00D-06.
 Requested convergence on             energy=1.00D-06.
 No special actions if energy rises.
 EnCoef did     3 forward-backward iterations
 SCF Done:  E(RB3LYP) =  -3221.11314828     A.U. after   17 cycles
            NFock= 17  Conv=0.74D-08     -V/T= 2.0027
 QCSCF skips out because SCF is already converged.
 Calling FoFJK, ICntrl=      2127 FMM=F ISym2X=0 I1Cent= 0 IOpClX= 0 NMat=1 NMatS=1 NMatT=0.
 ***** Axes restored to original set *****
 -------------------------------------------------------------------
 Center     Atomic                   Forces (Hartrees/Bohr)
 Number     Number              X              Y              Z
 -------------------------------------------------------------------
      1        6          -0.010317479   -0.018403223   -0.000057213
      2        6           0.003959814    0.019476997    0.002353509
      3        6          -0.003335871   -0.007661362   -0.000339747
      4        6           0.007794356    0.013232869   -0.000082824
      5        6          -0.003086317   -0.004315735    0.000206289
      6        6           0.012446483   -0.002296726   -0.004531845
      7        6           0.007731964    0.025675919    0.002274978
      8        6          -0.022863797   -0.014506690    0.004808198
      9        6           0.006870509    0.000860943   -0.002101908
     10        6          -0.003922052   -0.002888443    0.000749745
     11        6           0.009629713    0.003284810   -0.002555520
     12        6           0.013685118   -0.010569800   -0.006493841
     13        1           0.010686821    0.008931329   -0.001843472
     14        1          -0.012205244    0.002523222    0.004494923
     15        1          -0.003484661   -0.011742934   -0.001057540
     16        1          -0.006135757   -0.000925677    0.001847539
     17       17          -0.000745967    0.007687236    0.001689440
     18       17          -0.004754611   -0.006532726    0.000339536
     19       17          -0.000139205    0.006673967    0.001299314
     20       17          -0.006585412   -0.002669603    0.001668213
     21       17           0.005572163    0.001827433   -0.001492609
     22       17          -0.000800568   -0.007661804   -0.001175165
 -------------------------------------------------------------------
 Cartesian Forces:  Max     0.025675919 RMS     0.008033639

 GradGradGradGradGradGradGradGradGradGradGradGradGradGradGradGradGradGrad
 Berny optimization.
 Using GEDIIS/GDIIS optimizer.
 FormGI is forming the generalized inverse of G from B-inverse, IUseBI=4.
 Internal  Forces:  Max     0.061107207 RMS     0.011367735
 Search for a local minimum.
 Step number   2 out of a maximum of  121
 All quantities printed in internal units (Hartrees-Bohrs-Radians)
 Mixed Optimization -- RFO/linear search
 Update second derivatives using D2CorX and points    1    2
 DE= -3.90D-02 DEPred=-1.46D-01 R= 2.68D-01
 Trust test= 2.68D-01 RLast= 3.00D-01 DXMaxT set to 3.00D-01
 ITU=  0  0
 Use linear search instead of GDIIS.
     Eigenvalues ---    0.00237   0.01478   0.01485   0.02070   0.02070
     Eigenvalues ---    0.02070   0.02070   0.02070   0.02070   0.02070
     Eigenvalues ---    0.02070   0.02070   0.02070   0.02070   0.02070
     Eigenvalues ---    0.02070   0.02070   0.02070   0.02070   0.15961
     Eigenvalues ---    0.16000   0.16000   0.16035   0.23018   0.23437
     Eigenvalues ---    0.23481   0.23913   0.24724   0.25000   0.25000
     Eigenvalues ---    0.25000   0.25000   0.25000   0.25000   0.25000
     Eigenvalues ---    0.25000   0.28457   0.29509   0.29539   0.29539
     Eigenvalues ---    0.29539   0.29539   0.29539   0.37092   0.37221
     Eigenvalues ---    0.37230   0.37230   0.40736   0.41367   0.41466
     Eigenvalues ---    0.41794   0.45035   0.45313   0.45389   0.45389
     Eigenvalues ---    0.45389   0.45389   0.45389   0.45389   2.07042
 RFO step:  Lambda=-1.43087957D-02 EMin= 2.36824243D-03
 Quartic linear search produced a step of -0.31900.
 Iteration  1 RMS(Cart)=  0.15671124 RMS(Int)=  0.00509860
 Iteration  2 RMS(Cart)=  0.00853695 RMS(Int)=  0.00005090
 Iteration  3 RMS(Cart)=  0.00001736 RMS(Int)=  0.00005064
 Iteration  4 RMS(Cart)=  0.00000000 RMS(Int)=  0.00005064
 Variable       Old X    -DE/DX   Delta X   Delta X   Delta X     New X
                                 (Linear)    (Quad)   (Total)
    R1        2.65475   0.00775  -0.00207   0.01707   0.01501   2.66976
    R2        2.65430  -0.00425  -0.00193  -0.00122  -0.00310   2.65120
    R3        2.94528  -0.00784  -0.01120   0.01005  -0.00115   2.94413
    R4        2.64115  -0.00945   0.00227  -0.01932  -0.01708   2.62407
    R5        2.02496  -0.00363  -0.00094  -0.00393  -0.00487   2.02009
    R6        2.63977  -0.00036   0.00271  -0.00756  -0.00490   2.63487
    R7        3.32199  -0.00647   0.00125  -0.01734  -0.01608   3.30590
    R8        2.64065  -0.00300   0.00243  -0.01112  -0.00871   2.63195
    R9        3.32194  -0.00809   0.00127  -0.02094  -0.01967   3.30227
   R10        2.64575  -0.00951   0.00080  -0.01642  -0.01558   2.63017
   R11        3.32221  -0.00689   0.00118  -0.01810  -0.01691   3.30529
   R12        2.00269   0.01321   0.00616   0.00722   0.01338   2.01607
   R13        2.65639   0.00671  -0.00259   0.01667   0.01415   2.67054
   R14        2.70179  -0.01824  -0.01708   0.01841   0.00145   2.70324
   R15        2.63711  -0.00692   0.00356  -0.01883  -0.01532   2.62180
   R16        2.02471  -0.00450  -0.00086  -0.00567  -0.00654   2.01818
   R17        2.63236  -0.00043   0.00507  -0.01351  -0.00855   2.62381
   R18        3.32195  -0.00562   0.00127  -0.01552  -0.01425   3.30770
   R19        2.63361  -0.01011   0.00467  -0.02720  -0.02261   2.61100
   R20        3.32157  -0.00677   0.00139  -0.01836  -0.01697   3.30460
   R21        2.64922  -0.00888  -0.00031  -0.01280  -0.01307   2.63616
   R22        2.02608   0.00647  -0.00130   0.01477   0.01347   2.03955
   R23        3.32232  -0.00277   0.00115  -0.00895  -0.00780   3.31452
    A1        2.06135  -0.01112   0.01054  -0.05433  -0.04372   2.01763
    A2        2.01943   0.05477   0.02391   0.08322   0.10709   2.12653
    A3        2.20241  -0.04365  -0.03446  -0.02889  -0.06338   2.13903
    A4        2.11639   0.00250  -0.00702   0.02474   0.01771   2.13410
    A5        2.08718   0.01249   0.00230   0.04381   0.04612   2.13330
    A6        2.07962  -0.01499   0.00471  -0.06856  -0.06384   2.01578
    A7        2.09611   0.00560  -0.00055   0.01645   0.01583   2.11194
    A8        2.08983  -0.00843   0.00146  -0.02557  -0.02407   2.06575
    A9        2.09724   0.00283  -0.00091   0.00912   0.00825   2.10549
   A10        2.08214  -0.00839   0.00391  -0.03168  -0.02784   2.05430
   A11        2.09995   0.00408  -0.00177   0.01509   0.01335   2.11330
   A12        2.10110   0.00431  -0.00214   0.01659   0.01449   2.11558
   A13        2.10363   0.00351  -0.00294   0.01439   0.01146   2.11508
   A14        2.09359   0.00429   0.00026   0.01132   0.01157   2.10516
   A15        2.08597  -0.00781   0.00269  -0.02571  -0.02302   2.06294
   A16        2.10676   0.00790  -0.00394   0.03042   0.02656   2.13331
   A17        2.10658  -0.00297  -0.00389   0.00104  -0.00289   2.10369
   A18        2.06985  -0.00493   0.00783  -0.03146  -0.02367   2.04618
   A19        1.97858   0.06111   0.03695   0.06840   0.10524   2.08382
   A20        2.25188  -0.04511  -0.05024   0.00595  -0.04439   2.20748
   A21        2.05273  -0.01600   0.01329  -0.07434  -0.06085   1.99188
   A22        2.12920   0.00626  -0.01110   0.04569   0.03463   2.16383
   A23        2.07953   0.00845   0.00474   0.02406   0.02879   2.10831
   A24        2.07446  -0.01471   0.00636  -0.06976  -0.06342   2.01105
   A25        2.09195   0.00024   0.00078   0.00107   0.00169   2.09364
   A26        2.09155  -0.00647   0.00091  -0.02003  -0.01904   2.07251
   A27        2.09969   0.00623  -0.00169   0.01896   0.01735   2.11704
   A28        2.08700  -0.00526   0.00236  -0.01829  -0.01613   2.07086
   A29        2.10277   0.00940  -0.00267   0.03017   0.02760   2.13036
   A30        2.09342  -0.00414   0.00031  -0.01187  -0.01146   2.08196
   A31        2.11662  -0.00099  -0.00709   0.01206   0.00493   2.12155
   A32        2.08280   0.00054   0.00370  -0.00620  -0.00248   2.08032
   A33        2.08377   0.00046   0.00339  -0.00585  -0.00244   2.08132
   A34        2.08888   0.01576   0.00176   0.03381   0.03573   2.12461
   A35        2.20034  -0.01682  -0.03379   0.03970   0.00583   2.20617
   A36        1.99397   0.00106   0.03204  -0.07352  -0.04156   1.95241
    D1        0.00000  -0.00000  -0.00000  -0.00000  -0.00000   0.00000
    D2        3.14159  -0.00000  -0.00000  -0.00000  -0.00000   3.14159
    D3       -3.14159  -0.00000   0.00000  -0.00000  -0.00000  -3.14159
    D4       -0.00000  -0.00000   0.00000   0.00000   0.00000  -0.00000
    D5       -0.00000   0.00000   0.00000   0.00000   0.00000  -0.00000
    D6        3.14159   0.00000   0.00000   0.00000   0.00000   3.14159
    D7        3.14159  -0.00000  -0.00000   0.00000   0.00000   3.14159
    D8        0.00000  -0.00000   0.00000  -0.00000  -0.00000  -0.00000
    D9       -0.00000  -0.00000   0.00000  -0.00000  -0.00000  -0.00000
   D10        3.14159  -0.00000   0.00000  -0.00000  -0.00000   3.14159
   D11        3.14159  -0.00000   0.00000  -0.00000  -0.00000   3.14159
   D12       -0.00000  -0.00000   0.00000   0.00000   0.00000  -0.00000
   D13        0.00000  -0.00000   0.00000  -0.00000  -0.00000   0.00000
   D14        3.14159   0.00000   0.00000   0.00000   0.00000   3.14159
   D15       -3.14159  -0.00000   0.00000  -0.00000  -0.00000  -3.14159
   D16        0.00000  -0.00000   0.00000  -0.00000  -0.00000   0.00000
   D17       -0.00000   0.00000  -0.00000   0.00000   0.00000  -0.00000
   D18        3.14159  -0.00000  -0.00000  -0.00000  -0.00000   3.14159
   D19        3.14159   0.00000   0.00000   0.00000   0.00000   3.14159
   D20        0.00000  -0.00000   0.00000  -0.00000  -0.00000   0.00000
   D21        0.00000  -0.00000  -0.00000  -0.00000  -0.00000   0.00000
   D22       -3.14159  -0.00000  -0.00000  -0.00000  -0.00000  -3.14159
   D23       -3.14159   0.00000   0.00000   0.00000   0.00000  -3.14159
   D24        0.00000   0.00000  -0.00000   0.00000   0.00000   0.00000
   D25       -0.00000   0.00000  -0.00000   0.00000   0.00000  -0.00000
   D26        3.14159   0.00000  -0.00000   0.00000   0.00000   3.14159
   D27        3.14159   0.00000   0.00000   0.00000   0.00000   3.14159
   D28       -0.00000   0.00000  -0.00000   0.00000   0.00000  -0.00000
   D29        3.14159  -0.00000  -0.00000   0.00000   0.00000  -3.14159
   D30        0.00000  -0.00000  -0.00000  -0.00000  -0.00000   0.00000
   D31        0.00000  -0.00000  -0.00000  -0.00000  -0.00000   0.00000
   D32       -3.14159  -0.00000   0.00000  -0.00000  -0.00000  -3.14159
   D33       -3.14159  -0.00000  -0.00000  -0.00000  -0.00000   3.14159
   D34        0.00000  -0.00000   0.00000  -0.00000  -0.00000  -0.00000
   D35       -0.00000   0.00000   0.00000   0.00000   0.00000  -0.00000
   D36        3.14159   0.00000   0.00000   0.00000   0.00000   3.14159
   D37       -0.00000  -0.00000   0.00000   0.00000   0.00000  -0.00000
   D38        3.14159  -0.00000   0.00000  -0.00000  -0.00000   3.14159
   D39        3.14159   0.00000  -0.00000   0.00000   0.00000   3.14159
   D40       -0.00000   0.00000  -0.00000   0.00000   0.00000  -0.00000
   D41       -0.00000   0.00000   0.00000   0.00000   0.00000   0.00000
   D42       -3.14159  -0.00000   0.00000  -0.00000  -0.00000  -3.14159
   D43        3.14159   0.00000  -0.00000   0.00000   0.00000  -3.14159
   D44        0.00000  -0.00000   0.00000  -0.00000  -0.00000   0.00000
   D45        0.00000   0.00000  -0.00000  -0.00000  -0.00000  -0.00000
   D46       -3.14159  -0.00000  -0.00000  -0.00000  -0.00000  -3.14159
   D47        3.14159   0.00000  -0.00000   0.00000   0.00000   3.14159
   D48        0.00000  -0.00000  -0.00000  -0.00000  -0.00000   0.00000
   D49        0.00000  -0.00000  -0.00000  -0.00000  -0.00000   0.00000
   D50       -3.14159  -0.00000  -0.00000  -0.00000  -0.00000  -3.14159
   D51        3.14159   0.00000  -0.00000   0.00000   0.00000   3.14159
   D52       -0.00000   0.00000  -0.00000   0.00000   0.00000  -0.00000
         Item               Value     Threshold  Converged?
 Maximum Force            0.061107     0.000450     NO 
 RMS     Force            0.011368     0.000300     NO 
 Maximum Displacement     0.556287     0.001800     NO 
 RMS     Displacement     0.157734     0.001200     NO 
 Predicted change in Energy=-9.699040D-03
 GradGradGradGradGradGradGradGradGradGradGradGradGradGradGradGradGradGrad

                          Input orientation:                          
 ---------------------------------------------------------------------
 Center     Atomic      Atomic             Coordinates (Angstroms)
 Number     Number       Type             X           Y           Z
 ---------------------------------------------------------------------
[...]
                 (A) (A) (A) (A) (A) (A) (A) (A) (A) (A) (A) (A)
                 (A) (A) (A) (A) (A) (A) (A) (A) (A) (A) (A) (A)
                 (A) (A) (A) (A) (A) (A) (A) (A) (A) (A) (A) (A)
                 (A) (A) (A) (A) (A) (A) (A) (A) (A) (A) (A) (A)
                 (A) (A) (A) (A) (A) (A) (A) (A) (A) (A) (A) (A)
                 (A) (A) (A) (A) (A) (A) (A) (A) (A) (A) (A) (A)
                 (A) (A) (A) (A) (A) (A) (A) (A) (A) (A) (A) (A)
                 (A) (A) (A) (A) (A) (A) (A) (A) (A) (A) (A) (A)
                 (A) (A) (A) (A) (A) (A) (A) (A) (A) (A) (A) (A)
                 (A) (A) (A) (A) (A) (A) (A) (A) (A) (A) (A) (A)
                 (A) (A) (A) (A) (A) (A) (A) (A) (A) (A) (A) (A)
                 (A) (A) (A) (A) (A) (A) (A) (A) (A) (A) (A) (A)
                 (A) (A) (A) (A) (A) (A) (A) (A) (A) (A) (A) (A)
                 (A) (A) (A) (A) (A) (A) (A) (A) (A) (A) (A) (A)
                 (A) (A) (A) (A) (A) (A) (A) (A) (A) (A) (A) (A)
                 (A) (A) (A) (A) (A) (A) (A) (A) (A) (A) (A) (A)
                 (A) (A) (A) (A) (A) (A) (A) (A) (A) (A) (A) (A)
                 (A) (A) (A) (A) (A) (A) (A) (A) (A) (A) (A) (A)
                 (A) (A) (A) (A) (A) (A) (A) (A) (A) (A) (A) (A)
                 (A) (A) (A) (A) (A) (A) (A) (A) (A) (A) (A) (A)
                 (A) (A) (A) (A) (A) (A) (A) (A) (A) (A) (A) (A)
                 (A) (A) (A) (A) (A) (A) (A) (A) (A) (A) (A) (A)
                 (A) (A) (A) (A) (A) (A) (A) (A) (A) (A) (A) (A)
                 (A) (A) (A) (A) (A) (A) (A) (A) (A) (A) (A) (A)
                 (A) (A) (A) (A) (A) (A) (A) (A) (A) (A) (A) (A)
                 (A) (A) (A) (A) (A) (A) (A) (A) (A) (A) (A) (A)
                 (A) (A) (A) (A) (A) (A) (A) (A) (A) (A) (A) (A)
                 (A) (A)
 The electronic state is 1-A.
 Alpha  occ. eigenvalues -- -101.58040-101.57922-101.57859-101.57805-101.57705
 Alpha  occ. eigenvalues -- -101.57618 -10.27738 -10.27701 -10.27461 -10.27447
 Alpha  occ. eigenvalues --  -10.27446 -10.27425 -10.23718 -10.23196 -10.22552
 Alpha  occ. eigenvalues --  -10.22507 -10.21872 -10.21792  -9.49494  -9.49375
 Alpha  occ. eigenvalues --   -9.49329  -9.49265  -9.49162  -9.49076  -7.25982
 Alpha  occ. eigenvalues --   -7.25863  -7.25802  -7.25765  -7.25650  -7.25564
 Alpha  occ. eigenvalues --   -7.24973  -7.24913  -7.24853  -7.24810  -7.24797
 Alpha  occ. eigenvalues --   -7.24760  -7.24748  -7.24664  -7.24641  -7.24580
 Alpha  occ. eigenvalues --   -7.24555  -7.24494  -0.95454  -0.94858  -0.91205
 Alpha  occ. eigenvalues --   -0.90097  -0.88668  -0.87962  -0.86251  -0.84484
 Alpha  occ. eigenvalues --   -0.79750  -0.76628  -0.76357  -0.74189  -0.66820
 Alpha  occ. eigenvalues --   -0.65156  -0.63950  -0.60962  -0.55482  -0.54483
 Alpha  occ. eigenvalues --   -0.52841  -0.52557  -0.50210  -0.48599  -0.47068
 Alpha  occ. eigenvalues --   -0.46894  -0.46686  -0.45393  -0.45017  -0.43845
 Alpha  occ. eigenvalues --   -0.41919  -0.41170  -0.40977  -0.39746  -0.38783
 Alpha  occ. eigenvalues --   -0.37308  -0.36693  -0.35340  -0.35272  -0.34796
 Alpha  occ. eigenvalues --   -0.34260  -0.34037  -0.33574  -0.33143  -0.32074
 Alpha  occ. eigenvalues --   -0.29288  -0.27727  -0.27526  -0.26313
 Alpha virt. eigenvalues --   -0.07430  -0.06306  -0.05387  -0.04030  -0.03837
 Alpha virt. eigenvalues --   -0.03034  -0.00978  -0.00415   0.00738   0.01291
 Alpha virt. eigenvalues --    0.01645   0.02012   0.02208   0.02390   0.03282
 Alpha virt. eigenvalues --    0.03946   0.04221   0.04744   0.05076   0.06074
 Alpha virt. eigenvalues --    0.06319   0.06751   0.06991   0.07363   0.07761
 Alpha virt. eigenvalues --    0.08152   0.08506   0.08842   0.09222   0.09357
 Alpha virt. eigenvalues --    0.09702   0.10426   0.10499   0.10744   0.11052
 Alpha virt. eigenvalues --    0.11642   0.11972   0.12175   0.12584   0.12671
 Alpha virt. eigenvalues --    0.13088   0.13757   0.13973   0.14341   0.14445
 Alpha virt. eigenvalues --    0.14785   0.15008   0.15700   0.16141   0.16652
 Alpha virt. eigenvalues --    0.16765   0.17136   0.17579   0.18120   0.18301
 Alpha virt. eigenvalues --    0.18875   0.19007   0.19358   0.19559   0.19978
 Alpha virt. eigenvalues --    0.20251   0.20745   0.21114   0.21969   0.22459
 Alpha virt. eigenvalues --    0.22742   0.22902   0.23259   0.23851   0.24238
 Alpha virt. eigenvalues --    0.24459   0.24663   0.24999   0.25393   0.25881
 Alpha virt. eigenvalues --    0.26278   0.26639   0.26961   0.27306   0.27890
 Alpha virt. eigenvalues --    0.28223   0.28348   0.28644   0.28972   0.29520
 Alpha virt. eigenvalues --    0.29543   0.30515   0.31070   0.31945   0.32285
 Alpha virt. eigenvalues --    0.33506   0.33719   0.39645   0.40923   0.41929
 Alpha virt. eigenvalues --    0.42311   0.43296   0.43414   0.43642   0.44307
 Alpha virt. eigenvalues --    0.44721   0.45373   0.45936   0.46282   0.46450
 Alpha virt. eigenvalues --    0.46856   0.47160   0.47428   0.48064   0.48334
 Alpha virt. eigenvalues --    0.48589   0.49106   0.49736   0.52810   0.54161
 Alpha virt. eigenvalues --    0.54899   0.54935   0.55689   0.56426   0.56815
 Alpha virt. eigenvalues --    0.57810   0.58598   0.58862   0.59700   0.60515
 Alpha virt. eigenvalues --    0.61003   0.61449   0.61889   0.62764   0.63182
 Alpha virt. eigenvalues --    0.64014   0.65152   0.65760   0.66301   0.66665
 Alpha virt. eigenvalues --    0.67493   0.68435   0.68660   0.69122   0.69870
 Alpha virt. eigenvalues --    0.70227   0.71109   0.73484   0.76635   0.77749
 Alpha virt. eigenvalues --    0.79066   0.80373   0.81085   0.82293   0.82473
 Alpha virt. eigenvalues --    0.83017   0.83374   0.83741   0.84039   0.84201
 Alpha virt. eigenvalues --    0.84447   0.84542   0.84837   0.85203   0.85512
 Alpha virt. eigenvalues --    0.85764   0.86411   0.86713   0.87420   0.87755
 Alpha virt. eigenvalues --    0.88252   0.89027   0.89774   0.90148   0.90696
 Alpha virt. eigenvalues --    0.91028   0.91441   0.91725   0.92930   0.93381
 Alpha virt. eigenvalues --    0.93548   0.94097   0.94561   0.95032   0.95365
 Alpha virt. eigenvalues --    0.96539   0.96887   0.97191   0.98814   1.00182
 Alpha virt. eigenvalues --    1.01885   1.02410   1.03444   1.04661   1.08241
 Alpha virt. eigenvalues --    1.08781   1.10577   1.12130   1.12644   1.14822
 Alpha virt. eigenvalues --    1.20684   1.20777   1.21508   1.21862   1.23315
 Alpha virt. eigenvalues --    1.23655   1.24220   1.26009   1.26545   1.26901
 Alpha virt. eigenvalues --    1.28310   1.29070   1.29972   1.30761   1.32257
 Alpha virt. eigenvalues --    1.33940   1.35042   1.36039   1.42202   1.43995
 Alpha virt. eigenvalues --    1.48776   1.49397   1.50678   1.52812   1.54875
 Alpha virt. eigenvalues --    1.55973   1.58145   1.58614   1.59656   1.62153
 Alpha virt. eigenvalues --    1.63793   1.64617   1.67343   1.69567   1.71992
 Alpha virt. eigenvalues --    1.72633   1.76155   1.76932   1.80045   1.80292
 Alpha virt. eigenvalues --    1.82806   1.86061   1.87034   1.87755   1.88842
 Alpha virt. eigenvalues --    1.89750   1.90145   1.94178   1.94556   1.94784
 Alpha virt. eigenvalues --    1.95266   1.97533   1.99267   2.00072   2.04376
 Alpha virt. eigenvalues --    2.06691   2.07724   2.10716   2.12865   2.13771
 Alpha virt. eigenvalues --    2.20557   2.22046   2.22755   2.23022   2.25395
 Alpha virt. eigenvalues --    2.25828   2.26525   2.27411   2.27881   2.28499
 Alpha virt. eigenvalues --    2.29391   2.30556   2.31739   2.32439   2.36492
 Alpha virt. eigenvalues --    2.39738   2.41162   2.42950   2.43540   2.44064
 Alpha virt. eigenvalues --    2.47680   2.49090   2.50299   2.51538   2.53312
 Alpha virt. eigenvalues --    2.54968   2.55700   2.58994   2.59400   2.60663
 Alpha virt. eigenvalues --    2.64595   2.65187   2.66879   2.70710   2.71137
 Alpha virt. eigenvalues --    2.72503   2.73595   2.74510   2.74899   2.76734
 Alpha virt. eigenvalues --    2.77158   2.78653   2.79375   2.82536   2.83152
 Alpha virt. eigenvalues --    2.88154   2.90520   2.96477   2.98030   3.03704
 Alpha virt. eigenvalues --    3.05435   3.07616   3.10649   3.11835   3.13575
 Alpha virt. eigenvalues --    3.14172   3.16590   3.20975   3.21113   3.25515
 Alpha virt. eigenvalues --    3.32587   3.35312   3.40775   3.48796   3.52225
 Alpha virt. eigenvalues --    3.63520   3.69002   3.70149   3.77713   3.81299
 Alpha virt. eigenvalues --    3.90855   3.99352   4.07697   4.10961   4.35455
 Alpha virt. eigenvalues --    4.79464   4.81694   9.73378   9.75156   9.78650
 Alpha virt. eigenvalues --    9.78861   9.80061   9.80615  23.34648  23.50128
 Alpha virt. eigenvalues --   23.81963  23.83244  23.87127  23.88169  23.93087
 Alpha virt. eigenvalues --   23.97948  24.02942  24.03488  24.08290  24.12867
 Alpha virt. eigenvalues --   25.76758  25.77444  25.81302  25.85625  25.87035
 Alpha virt. eigenvalues --   25.88950  26.06647  26.07979  26.10672  26.11584
 Alpha virt. eigenvalues --   26.16407  26.29298  26.45762  26.48937  26.62521
 Alpha virt. eigenvalues --   26.68578  26.77382  26.83239 215.72292 215.74053
 Alpha virt. eigenvalues --  215.78064 215.78381 215.79830 215.80505
          Condensed to atoms (all electrons):
               1          2          3          4          5          6
     1  C   30.790399  -2.455692  -6.459046  -3.809836  -4.967346  -3.740628
     2  C   -2.455692  26.681437   1.528420  -5.996771   0.261980 -14.595844
     3  C   -6.459046   1.528420  20.242383  -1.668028  -7.637666   1.012006
     4  C   -3.809836  -5.996771  -1.668028  24.994503  -0.366247  -6.269268
     5  C   -4.967346   0.261980  -7.637666  -0.366247  18.314541   1.404012
     6  C   -3.740628 -14.595844   1.012006  -6.269268   1.404012  28.828650
     7  C    2.070306   1.123682  -0.526866  -0.035248  -0.601776  -1.337440
     8  C   -2.436043   2.132429   0.484396   0.043716  -0.007065  -1.597261
     9  C   -0.698606  -0.137837  -0.439246   0.208043   0.010324   0.259864
    10  C   -0.079730  -0.528676   0.065198  -0.085787   0.137654   0.572113
    11  C   -0.772513   0.393698   0.414311  -0.177614  -0.037977  -0.603023
    12  C   -1.507312  -2.121245   0.103172  -0.239403   0.446162   2.467662
    13  H    0.042928   0.343029  -0.050572  -0.002033  -0.005777   0.008347
    14  H    0.063494   0.024913  -0.006186  -0.012156  -0.060861   0.361681
    15  H   -0.029062   0.081370   0.010904   0.005055  -0.008395  -0.059027
    16  H    0.011127   0.001396  -0.000297   0.000108  -0.000715  -0.002659
    17  Cl   0.017377   0.007043   0.004362  -0.001864   0.000458  -0.002293
    18  Cl   0.303704  -0.207873  -0.157338  -0.376981   0.093964  -0.320659
    19  Cl  -0.073253   0.086353   0.011586   0.002482  -0.011189  -0.040163
    20  Cl  -0.553561   0.287443  -0.290159  -0.235099  -0.088741   0.237481
    21  Cl  -0.037149  -0.263391  -0.263816   0.119798   0.074179   0.371298
    22  Cl  -0.603533   0.153461   0.021262  -0.122582  -0.453698   0.294368
               7          8          9         10         11         12
     1  C    2.070306  -2.436043  -0.698606  -0.079730  -0.772513  -1.507312
     2  C    1.123682   2.132429  -0.137837  -0.528676   0.393698  -2.121245
     3  C   -0.526866   0.484396  -0.439246   0.065198   0.414311   0.103172
     4  C   -0.035248   0.043716   0.208043  -0.085787  -0.177614  -0.239403
     5  C   -0.601776  -0.007065   0.010324   0.137654  -0.037977   0.446162
     6  C   -1.337440  -1.597261   0.259864   0.572113  -0.603023   2.467662
     7  C   17.361956   0.909916  -5.180701   0.587532  -1.478696  -5.950210
     8  C    0.909916  17.088471  -0.911140  -7.012091   3.631838  -5.700417
     9  C   -5.180701  -0.911140  20.949280  -4.758343  -3.451376   0.269116
    10  C    0.587532  -7.012091  -4.758343  20.090447  -0.458345  -1.634169
    11  C   -1.478696   3.631838  -3.451376  -0.458345  17.378296  -7.827415
    12  C   -5.950210  -5.700417   0.269116  -1.634169  -7.827415  27.635555
    13  H    0.003287   0.017023  -0.027463  -0.005749   0.015424   0.013067
    14  H   -0.014337  -0.012807  -0.008358   0.005647  -0.006443   0.022067
    15  H    0.044754   0.354179  -0.067564   0.035326  -0.026814   0.003156
    16  H    0.093367  -0.035506   0.051036  -0.001162   0.237104  -0.007838
    17  Cl   0.109254   0.107529  -0.153604  -0.396552   0.129399  -0.432853
    18  Cl   0.042055   0.016785   0.013114  -0.002133  -0.008422  -0.043701
    19  Cl  -0.842265  -0.054813  -0.341877  -0.088452   0.130904   0.432214
    20  Cl  -0.081619   0.043436   0.007479  -0.000432   0.002660  -0.011649
    21  Cl  -0.217685  -0.033856   0.342899  -0.525487  -0.679476   0.085227
    22  Cl  -0.064922   0.005178  -0.007685   0.007211   0.027082   0.017418
              13         14         15         16         17         18
     1  C    0.042928   0.063494  -0.029062   0.011127   0.017377   0.303704
     2  C    0.343029   0.024913   0.081370   0.001396   0.007043  -0.207873
     3  C   -0.050572  -0.006186   0.010904  -0.000297   0.004362  -0.157338
     4  C   -0.002033  -0.012156   0.005055   0.000108  -0.001864  -0.376981
     5  C   -0.005777  -0.060861  -0.008395  -0.000715   0.000458   0.093964
     6  C    0.008347   0.361681  -0.059027  -0.002659  -0.002293  -0.320659
     7  C    0.003287  -0.014337   0.044754   0.093367   0.109254   0.042055
     8  C    0.017023  -0.012807   0.354179  -0.035506   0.107529   0.016785
     9  C   -0.027463  -0.008358  -0.067564   0.051036  -0.153604   0.013114
    10  C   -0.005749   0.005647   0.035326  -0.001162  -0.396552  -0.002133
    11  C    0.015424  -0.006443  -0.026814   0.237104   0.129399  -0.008422
    12  C    0.013067   0.022067   0.003156  -0.007838  -0.432853  -0.043701
    13  H    0.500762  -0.000180  -0.000728   0.000002  -0.000031  -0.000330
    14  H   -0.000180   0.494178   0.000041   0.000024  -0.000083  -0.000071
    15  H   -0.000728   0.000041   0.500311   0.000038   0.000520  -0.000051
    16  H    0.000002   0.000024   0.000038   0.487933  -0.006448  -0.000001
    17  Cl  -0.000031  -0.000083   0.000520  -0.006448  17.323992   0.000008
    18  Cl  -0.000330  -0.000071  -0.000051  -0.000001   0.000008  17.363661
    19  Cl   0.000072  -0.000188  -0.003530   0.000366  -0.161087   0.000123
    20  Cl  -0.004770   0.000496  -0.000339  -0.000001   0.000096  -0.168589
    21  Cl  -0.002066  -0.007666   0.000597  -0.004325  -0.036869   0.011494
    22  Cl   0.000736  -0.001746  -0.000162  -0.000022   0.000127  -0.175760
              19         20         21         22
     1  C   -0.073253  -0.553561  -0.037149  -0.603533
     2  C    0.086353   0.287443  -0.263391   0.153461
     3  C    0.011586  -0.290159  -0.263816   0.021262
     4  C    0.002482  -0.235099   0.119798  -0.122582
     5  C   -0.011189  -0.088741   0.074179  -0.453698
     6  C   -0.040163   0.237481   0.371298   0.294368
     7  C   -0.842265  -0.081619  -0.217685  -0.064922
     8  C   -0.054813   0.043436  -0.033856   0.005178
     9  C   -0.341877   0.007479   0.342899  -0.007685
    10  C   -0.088452  -0.000432  -0.525487   0.007211
    11  C    0.130904   0.002660  -0.679476   0.027082
    12  C    0.432214  -0.011649   0.085227   0.017418
    13  H    0.000072  -0.004770  -0.002066   0.000736
    14  H   -0.000188   0.000496  -0.007666  -0.001746
    15  H   -0.003530  -0.000339   0.000597  -0.000162
    16  H    0.000366  -0.000001  -0.004325  -0.000022
    17  Cl  -0.161087   0.000096  -0.036869   0.000127
    18  Cl   0.000123  -0.168589   0.011494  -0.175760
    19  Cl  17.423387   0.000984  -0.003574  -0.000056
    20  Cl   0.000984  17.333675  -0.007785   0.008817
    21  Cl  -0.003574  -0.007785  17.689983  -0.001344
    22  Cl  -0.000056   0.008817  -0.001344  17.350211
 Mulliken charges:
               1
     1  C    0.923973
     2  C   -0.799327
     3  C   -0.398779
     4  C    0.025214
     5  C   -0.495821
     6  C   -1.249217
     7  C   -0.014346
     8  C   -1.033898
     9  C    0.072644
    10  C    0.075980
    11  C   -0.832601
    12  C   -0.018605
    13  H    0.155022
    14  H    0.158540
    15  H    0.159421
    16  H    0.176474
    17  Cl   0.491522
    18  Cl   0.616999
    19  Cl   0.531979
    20  Cl   0.520178
    21  Cl   0.389011
    22  Cl   0.545638
 Sum of Mulliken charges =  -0.00000
 Mulliken charges with hydrogens summed into heavy atoms:
               1
     1  C    0.923973
     2  C   -0.644305
     3  C   -0.398779
     4  C    0.025214
     5  C   -0.495821
     6  C   -1.090677
     7  C   -0.014346
     8  C   -0.874478
     9  C    0.072644
    10  C    0.075980
    11  C   -0.656127
    12  C   -0.018605
    17  Cl   0.491522
    18  Cl   0.616999
    19  Cl   0.531979
    20  Cl   0.520178
    21  Cl   0.389011
    22  Cl   0.545638
 Electronic spatial extent (au):  <R**2>=           9827.6629
 Charge=             -0.0000 electrons
 Dipole moment (field-independent basis, Debye):
    X=             -1.1228    Y=             -0.1748    Z=              0.0273  Tot=              1.1366
 Quadrupole moment (field-independent basis, Debye-Ang):
   XX=           -155.2446   YY=           -143.6690   ZZ=           -145.9810
   XY=              2.4154   XZ=             -1.5563   YZ=              0.1004
 Traceless Quadrupole moment (field-independent basis, Debye-Ang):
   XX=             -6.9464   YY=              4.6292   ZZ=              2.3172
   XY=              2.4154   XZ=             -1.5563   YZ=              0.1004
 Octapole moment (field-independent basis, Debye-Ang**2):
  XXX=              9.2241  YYY=              0.4409  ZZZ=             -0.4606  XYY=             -3.2138
  XXY=            -15.5647  XXZ=              8.7446  XZZ=              1.6785  YZZ=              0.5019
  YYZ=             -0.2654  XYZ=              3.4967
 Hexadecapole moment (field-independent basis, Debye-Ang**3):
 XXXX=          -9781.1809 YYYY=          -2211.5711 ZZZZ=           -848.4275 XXXY=             46.5742
 XXXZ=            -27.9778 YYYX=            -17.4678 YYYZ=              1.9135 ZZZX=              6.0040
 ZZZY=              1.0573 XXYY=          -1983.0416 XXZZ=          -1781.9401 YYZZ=           -494.6655
 XXYZ=            -15.8889 YYXZ=              4.1380 ZZXY=             -7.7561
 N-N= 1.945115238581D+03 E-N=-1.151888694670D+04  KE= 3.212692124754D+03
 1\1\GINC-CN265\FOpt\RB3LYP\6-311+G(d,p)\C12H4Cl6\20CY91R06\24-Mar-2022
 \0\\# opt b3lyp/6-311+g(d,p) scf=xqc\\Title Card Required\\0,1\C,-1.50
 78209204,1.4995042079,0.2287667244\C,-0.4680032594,1.6851820143,-0.683
 6570923\C,0.282541848,2.8563368231,-0.6709196502\C,0.0170122592,3.8718
 401349,0.2567329245\C,-1.0267898363,3.6724641146,1.1725543372\C,-1.779
 8116699,2.505041255,1.1585841783\C,-2.2735681713,0.2229935627,0.227951
 5938\C,-1.5805179181,-0.9808590311,0.3968364966\C,-2.2285895263,-2.211
 5933618,0.4063340891\C,-3.6154534897,-2.2595515409,0.2422562874\C,-4.3
 269066061,-1.0767502719,0.0645555693\C,-3.6639078388,0.1447557013,0.05
 76532987\H,-0.2437713785,0.927095011,-1.4225455187\H,-2.571257745,2.38
 47870279,1.8854470522\H,-0.5082534893,-0.9565272101,0.5433255299\H,-5.
 3980973129,-1.113026911,-0.0776946472\Cl,-4.4878688666,-3.7680195209,0
 .2478065199\Cl,0.9527378831,5.3326832383,0.2738188302\Cl,-1.2832938329
 ,-3.6596847584,0.6325312288\Cl,1.5617507386,3.0289180003,-1.846550504\
 Cl,-4.6282017286,1.5834534327,-0.2254390162\Cl,-1.4094853187,4.8861316
 219,2.3678245184\\Version=EM64L-G16RevB.01\State=1-A\HF=-3221.13474\RM
 SD=7.535e-09\RMSF=1.462e-05\Dipole=-0.2580897,-0.3649347,0.0138116\Qua
 drupole=3.1898805,-5.168702,1.9788215,-2.077423,-0.3461368,0.6878539\P
 G=C01 [X(C12H4Cl6)]\\@


 At the touch of love, everyone becomes a poet.
                                -- Plato
 Job cpu time:       0 days 14 hours 58 minutes 38.2 seconds.
 Elapsed time:       0 days  7 hours 29 minutes 44.4 seconds.
 File lengths (MBytes):  RWF=    147 Int=      0 D2E=      0 Chk=     22 Scr=      1
 Normal termination of Gaussian 16 at Thu Mar 24 18:13:58 2022.
