 Entering Gaussian System, Link 0=g16
 Input=2,3prime,4,5prime,6-Pentachlorobiphenyl.gjf
 Output=2,3prime,4,5prime,6-Pentachlorobiphenyl.log
 Initial command:
 /home/apps/g16/l1.exe "./Gau-336916.inp" -scrdir="./"
 Entering Link 1 = /home/apps/g16/l1.exe PID=    336926.
  
 Copyright (c) 1988-2017, Gaussian, Inc.  All Rights Reserved.
  
 This is part of the Gaussian(R) 16 program.  It is based on
 the Gaussian(R) 09 system (copyright 2009, Gaussian, Inc.),
 the Gaussian(R) 03 system (copyright 2003, Gaussian, Inc.),
 the Gaussian(R) 98 system (copyright 1998, Gaussian, Inc.),
 the Gaussian(R) 94 system (copyright 1995, Gaussian, Inc.),
 the Gaussian 92(TM) system (copyright 1992, Gaussian, Inc.),
 the Gaussian 90(TM) system (copyright 1990, Gaussian, Inc.),
 the Gaussian 88(TM) system (copyright 1988, Gaussian, Inc.),
 the Gaussian 86(TM) system (copyright 1986, Carnegie Mellon
 University), and the Gaussian 82(TM) system (copyright 1983,
 Carnegie Mellon University). Gaussian is a federally registered
 trademark of Gaussian, Inc.
  
 This software contains proprietary and confidential information,
 including trade secrets, belonging to Gaussian, Inc.
  
 This software is provided under written license and may be
 used, copied, transmitted, or stored only in accord with that
 written license.
  
 The following legend is applicable only to US Government
 contracts under FAR:
  
                    RESTRICTED RIGHTS LEGEND
  
 Use, reproduction and disclosure by the US Government is
 subject to restrictions as set forth in subparagraphs (a)
 and (c) of the Commercial Computer Software - Restricted
 Rights clause in FAR 52.227-19.
  
 Gaussian, Inc.
 340 Quinnipiac St., Bldg. 40, Wallingford CT 06492
  
  
 ---------------------------------------------------------------
 Warning -- This program may not be used in any manner that
 competes with the business of Gaussian, Inc. or will provide
 assistance to any competitor of Gaussian, Inc.  The licensee
 of this program is prohibited from giving any competitor of
 Gaussian, Inc. access to this program.  By using this program,
 the user acknowledges that Gaussian, Inc. is engaged in the
 business of creating and licensing software in the field of
 computational chemistry and represents and warrants to the
 licensee that it is not a competitor of Gaussian, Inc. and that
 it will not use this program in any manner prohibited above.
 ---------------------------------------------------------------
  

 Cite this work as:
 Gaussian 16, Revision B.01,
 M. J. Frisch, G. W. Trucks, H. B. Schlegel, G. E. Scuseria, 
 M. A. Robb, J. R. Cheeseman, G. Scalmani, V. Barone, 
 G. A. Petersson, H. Nakatsuji, X. Li, M. Caricato, A. V. Marenich, 
 J. Bloino, B. G. Janesko, R. Gomperts, B. Mennucci, H. P. Hratchian, 
 J. V. Ortiz, A. F. Izmaylov, J. L. Sonnenberg, D. Williams-Young, 
 F. Ding, F. Lipparini, F. Egidi, J. Goings, B. Peng, A. Petrone, 
 T. Henderson, D. Ranasinghe, V. G. Zakrzewski, J. Gao, N. Rega, 
 G. Zheng, W. Liang, M. Hada, M. Ehara, K. Toyota, R. Fukuda, 
 J. Hasegawa, M. Ishida, T. Nakajima, Y. Honda, O. Kitao, H. Nakai, 
 T. Vreven, K. Throssell, J. A. Montgomery, Jr., J. E. Peralta, 
 F. Ogliaro, M. J. Bearpark, J. J. Heyd, E. N. Brothers, K. N. Kudin, 
 V. N. Staroverov, T. A. Keith, R. Kobayashi, J. Normand, 
 K. Raghavachari, A. P. Rendell, J. C. Burant, S. S. Iyengar, 
 J. Tomasi, M. Cossi, J. M. Millam, M. Klene, C. Adamo, R. Cammi, 
 J. W. Ochterski, R. L. Martin, K. Morokuma, O. Farkas, 
 J. B. Foresman, and D. J. Fox, Gaussian, Inc., Wallingford CT, 2016.
 
 ******************************************
 Gaussian 16:  EM64L-G16RevB.01 20-Dec-2017
                 1-Apr-2022 
 ******************************************
 %mem=32GB
 %nprocshared=16
 Will use up to   16 processors via shared memory.
 --------------------------------
 # opt b3lyp/6-311+g(d,p) scf=xqc
 --------------------------------
 1/18=20,19=15,26=3,38=1/1,3;
 2/9=110,12=2,17=6,18=5,40=1/2;
 3/5=4,6=6,7=111,11=2,25=1,30=1,71=1,74=-5/1,2,3;
 4//1;
 5/5=2,8=3,13=1,38=5/2,8;
 6/7=2,8=2,9=2,10=2,28=1/1;
 7//1,2,3,16;
 1/18=20,19=15,26=3/3(2);
 2/9=110/2;
 99//99;
 2/9=110/2;
 3/5=4,6=6,7=111,11=2,25=1,30=1,71=1,74=-5/1,2,3;
 4/5=5,16=3,69=1/1;
 5/5=2,8=3,13=1,38=5/2,8;
 7//1,2,3,16;
 1/18=20,19=15,26=3/3(-5);
 2/9=110/2;
 6/7=2,8=2,9=2,10=2,19=2,28=1/1;
 99/9=1/99;
 -------------------
 Title Card Required
 -------------------
 Symbolic Z-matrix:
 Charge =  0 Multiplicity = 1
 C                     0.67373   0.00036  -0.00225 
 C                     1.37345   1.20625  -0.1442 
 C                     2.77484   1.2069   -0.14841 
 C                     3.47651   0.00165  -0.01068 
 C                     2.77679  -1.20423   0.13127 
 C                     1.3754   -1.20488   0.13548 
 C                    -0.86627  -0.00035   0.00238 
 C                    -1.56794   1.20489  -0.13535 
 C                    -2.96933   1.20425  -0.13114 
 C                    -3.66905  -0.00164   0.0108 
 C                    -2.96738  -1.20688   0.14853 
 C                    -1.56599  -1.20624   0.14432 
 H                     0.8377    2.12648  -0.24936 
 H                     4.54651   0.00215  -0.01389 
 H                     0.84115  -2.1256    0.24386 
 H                    -3.50508   2.12448  -0.23631 
 H                    -3.50163  -2.1276    0.25691 
 Cl                   -0.68477  -2.71988   0.3173 
 Cl                    3.65801  -2.71788   0.30425 
 Cl                   -5.42905  -0.00245   0.01608 
 Cl                    3.65361   2.72135  -0.32668 
 Cl                   -0.68917   2.71935  -0.31362 
 

 GradGradGradGradGradGradGradGradGradGradGradGradGradGradGradGradGradGrad
 Berny optimization.
 Initialization pass.
                           ----------------------------
                           !    Initial Parameters    !
                           ! (Angstroms and Degrees)  !
 --------------------------                            --------------------------
 ! Name  Definition              Value          Derivative Info.                !
 --------------------------------------------------------------------------------
 ! R1    R(1,2)                  1.4014         estimate D2E/DX2                !
 ! R2    R(1,6)                  1.4014         estimate D2E/DX2                !
 ! R3    R(1,7)                  1.54           estimate D2E/DX2                !
 ! R4    R(2,3)                  1.4014         estimate D2E/DX2                !
 ! R5    R(2,13)                 1.07           estimate D2E/DX2                !
 ! R6    R(3,4)                  1.4014         estimate D2E/DX2                !
 ! R7    R(3,21)                 1.76           estimate D2E/DX2                !
 ! R8    R(4,5)                  1.4014         estimate D2E/DX2                !
 ! R9    R(4,14)                 1.07           estimate D2E/DX2                !
 ! R10   R(5,6)                  1.4014         estimate D2E/DX2                !
 ! R11   R(5,19)                 1.76           estimate D2E/DX2                !
 ! R12   R(6,15)                 1.07           estimate D2E/DX2                !
 ! R13   R(7,8)                  1.4014         estimate D2E/DX2                !
 ! R14   R(7,12)                 1.4014         estimate D2E/DX2                !
 ! R15   R(8,9)                  1.4014         estimate D2E/DX2                !
 ! R16   R(8,22)                 1.76           estimate D2E/DX2                !
 ! R17   R(9,10)                 1.4014         estimate D2E/DX2                !
 ! R18   R(9,16)                 1.07           estimate D2E/DX2                !
 ! R19   R(10,11)                1.4014         estimate D2E/DX2                !
 ! R20   R(10,20)                1.76           estimate D2E/DX2                !
 ! R21   R(11,12)                1.4014         estimate D2E/DX2                !
 ! R22   R(11,17)                1.07           estimate D2E/DX2                !
 ! R23   R(12,18)                1.76           estimate D2E/DX2                !
 ! A1    A(2,1,6)              120.0            estimate D2E/DX2                !
 ! A2    A(2,1,7)              120.0            estimate D2E/DX2                !
 ! A3    A(6,1,7)              120.0            estimate D2E/DX2                !
 ! A4    A(1,2,3)              120.0            estimate D2E/DX2                !
 ! A5    A(1,2,13)             120.0            estimate D2E/DX2                !
 ! A6    A(3,2,13)             120.0            estimate D2E/DX2                !
 ! A7    A(2,3,4)              120.0            estimate D2E/DX2                !
 ! A8    A(2,3,21)             120.0            estimate D2E/DX2                !
 ! A9    A(4,3,21)             120.0            estimate D2E/DX2                !
 ! A10   A(3,4,5)              120.0            estimate D2E/DX2                !
 ! A11   A(3,4,14)             120.0            estimate D2E/DX2                !
 ! A12   A(5,4,14)             120.0            estimate D2E/DX2                !
 ! A13   A(4,5,6)              120.0            estimate D2E/DX2                !
 ! A14   A(4,5,19)             120.0            estimate D2E/DX2                !
 ! A15   A(6,5,19)             120.0            estimate D2E/DX2                !
 ! A16   A(1,6,5)              120.0            estimate D2E/DX2                !
 ! A17   A(1,6,15)             120.0            estimate D2E/DX2                !
 ! A18   A(5,6,15)             120.0            estimate D2E/DX2                !
 ! A19   A(1,7,8)              120.0            estimate D2E/DX2                !
 ! A20   A(1,7,12)             120.0            estimate D2E/DX2                !
 ! A21   A(8,7,12)             120.0            estimate D2E/DX2                !
 ! A22   A(7,8,9)              120.0            estimate D2E/DX2                !
 ! A23   A(7,8,22)             120.0            estimate D2E/DX2                !
 ! A24   A(9,8,22)             120.0            estimate D2E/DX2                !
 ! A25   A(8,9,10)             120.0            estimate D2E/DX2                !
 ! A26   A(8,9,16)             120.0            estimate D2E/DX2                !
 ! A27   A(10,9,16)            120.0            estimate D2E/DX2                !
 ! A28   A(9,10,11)            120.0            estimate D2E/DX2                !
 ! A29   A(9,10,20)            120.0            estimate D2E/DX2                !
 ! A30   A(11,10,20)           120.0            estimate D2E/DX2                !
 ! A31   A(10,11,12)           120.0            estimate D2E/DX2                !
 ! A32   A(10,11,17)           120.0            estimate D2E/DX2                !
 ! A33   A(12,11,17)           120.0            estimate D2E/DX2                !
 ! A34   A(7,12,11)            120.0            estimate D2E/DX2                !
 ! A35   A(7,12,18)            120.0            estimate D2E/DX2                !
 ! A36   A(11,12,18)           120.0            estimate D2E/DX2                !
 ! D1    D(6,1,2,3)             -0.0001         estimate D2E/DX2                !
 ! D2    D(6,1,2,13)           179.9999         estimate D2E/DX2                !
 ! D3    D(7,1,2,3)            179.9999         estimate D2E/DX2                !
 ! D4    D(7,1,2,13)            -0.0001         estimate D2E/DX2                !
 ! D5    D(2,1,6,5)              0.0001         estimate D2E/DX2                !
 ! D6    D(2,1,6,15)          -179.9999         estimate D2E/DX2                !
 ! D7    D(7,1,6,5)           -179.9999         estimate D2E/DX2                !
 ! D8    D(7,1,6,15)             0.0001         estimate D2E/DX2                !
 ! D9    D(2,1,7,8)             -0.0002         estimate D2E/DX2                !
 ! D10   D(2,1,7,12)           179.9999         estimate D2E/DX2                !
 ! D11   D(6,1,7,8)            179.9998         estimate D2E/DX2                !
 ! D12   D(6,1,7,12)            -0.0001         estimate D2E/DX2                !
 ! D13   D(1,2,3,4)              0.0            estimate D2E/DX2                !
 ! D14   D(1,2,3,21)           179.9999         estimate D2E/DX2                !
 ! D15   D(13,2,3,4)          -180.0            estimate D2E/DX2                !
 ! D16   D(13,2,3,21)            0.0            estimate D2E/DX2                !
 ! D17   D(2,3,4,5)              0.0001         estimate D2E/DX2                !
 ! D18   D(2,3,4,14)           180.0            estimate D2E/DX2                !
 ! D19   D(21,3,4,5)          -179.9998         estimate D2E/DX2                !
 ! D20   D(21,3,4,14)            0.0001         estimate D2E/DX2                !
 ! D21   D(3,4,5,6)             -0.0001         estimate D2E/DX2                !
 ! D22   D(3,4,5,19)          -180.0            estimate D2E/DX2                !
 ! D23   D(14,4,5,6)           180.0            estimate D2E/DX2                !
 ! D24   D(14,4,5,19)            0.0001         estimate D2E/DX2                !
 ! D25   D(4,5,6,1)              0.0            estimate D2E/DX2                !
 ! D26   D(4,5,6,15)          -180.0            estimate D2E/DX2                !
 ! D27   D(19,5,6,1)           179.9999         estimate D2E/DX2                !
 ! D28   D(19,5,6,15)           -0.0001         estimate D2E/DX2                !
 ! D29   D(1,7,8,9)            179.9999         estimate D2E/DX2                !
 ! D30   D(1,7,8,22)             0.0            estimate D2E/DX2                !
 ! D31   D(12,7,8,9)            -0.0002         estimate D2E/DX2                !
 ! D32   D(12,7,8,22)          179.9999         estimate D2E/DX2                !
 ! D33   D(1,7,12,11)         -179.9999         estimate D2E/DX2                !
 ! D34   D(1,7,12,18)            0.0001         estimate D2E/DX2                !
 ! D35   D(8,7,12,11)            0.0002         estimate D2E/DX2                !
 ! D36   D(8,7,12,18)         -179.9998         estimate D2E/DX2                !
 ! D37   D(7,8,9,10)             0.0001         estimate D2E/DX2                !
 ! D38   D(7,8,9,16)          -179.9999         estimate D2E/DX2                !
 ! D39   D(22,8,9,10)          179.9999         estimate D2E/DX2                !
 ! D40   D(22,8,9,16)            0.0            estimate D2E/DX2                !
 ! D41   D(8,9,10,11)            0.0001         estimate D2E/DX2                !
 ! D42   D(8,9,10,20)         -180.0            estimate D2E/DX2                !
 ! D43   D(16,9,10,11)        -179.9999         estimate D2E/DX2                !
 ! D44   D(16,9,10,20)           0.0            estimate D2E/DX2                !
 ! D45   D(9,10,11,12)          -0.0002         estimate D2E/DX2                !
 ! D46   D(9,10,11,17)         179.9998         estimate D2E/DX2                !
 ! D47   D(20,10,11,12)        179.9999         estimate D2E/DX2                !
 ! D48   D(20,10,11,17)         -0.0001         estimate D2E/DX2                !
 ! D49   D(10,11,12,7)           0.0            estimate D2E/DX2                !
 ! D50   D(10,11,12,18)        179.9999         estimate D2E/DX2                !
 ! D51   D(17,11,12,7)        -180.0            estimate D2E/DX2                !
 ! D52   D(17,11,12,18)          0.0            estimate D2E/DX2                !
 --------------------------------------------------------------------------------
 Trust Radius=3.00D-01 FncErr=1.00D-07 GrdErr=1.00D-06 EigMax=2.50D+02 EigMin=1.00D-04
 Number of steps in this run=    121 maximum allowed number of steps=    132.
 GradGradGradGradGradGradGradGradGradGradGradGradGradGradGradGradGradGrad

                          Input orientation:                          
 ---------------------------------------------------------------------
 Center     Atomic      Atomic             Coordinates (Angstroms)
 Number     Number       Type             X           Y           Z
 ---------------------------------------------------------------------
      1          6           0        0.673725    0.000362   -0.002253
      2          6           0        1.373446    1.206249   -0.144200
      3          6           0        2.774839    1.206896   -0.148411
      4          6           0        3.476512    0.001655   -0.010675
      5          6           0        2.776792   -1.204233    0.131269
      6          6           0        1.375398   -1.204879    0.135480
      7          6           0       -0.866268   -0.000348    0.002376
      8          6           0       -1.567941    1.204894   -0.135354
      9          6           0       -2.969334    1.204247   -0.131144
     10          6           0       -3.669055   -0.001640    0.010797
     11          6           0       -2.967382   -1.206882    0.148532
     12          6           0       -1.565988   -1.206235    0.144321
     13          1           0        0.837703    2.126478   -0.249365
     14          1           0        4.546507    0.002148   -0.013891
     15          1           0        0.841146   -2.125601    0.243859
     16          1           0       -3.505077    2.124476   -0.236306
     17          1           0       -3.501634   -2.127603    0.256910
     18         17           0       -0.684766   -2.719882    0.317301
     19         17           0        3.658014   -2.717879    0.304250
     20         17           0       -5.429047   -0.002452    0.016084
     21         17           0        3.653609    2.721354   -0.326681
     22         17           0       -0.689171    2.719352   -0.313620
 ---------------------------------------------------------------------
                    Distance matrix (angstroms):
                    1          2          3          4          5
     1  C    0.000000
     2  C    1.401400   0.000000
     3  C    2.427296   1.401400   0.000000
     4  C    2.802800   2.427296   1.401400   0.000000
     5  C    2.427296   2.802800   2.427296   1.401400   0.000000
     6  C    1.401400   2.427296   2.802800   2.427296   1.401400
     7  C    1.540000   2.548270   3.838989   4.342800   3.838989
     8  C    2.548270   2.941400   4.342800   5.187469   4.975106
     9  C    3.838989   4.342800   5.744200   6.558176   6.235992
    10  C    4.342800   5.187469   6.558176   7.145600   6.558176
    11  C    3.838989   4.975106   6.235992   6.558176   5.744200
    12  C    2.548270   3.813607   4.975106   5.187469   4.342800
    13  H    2.146700   1.070000   2.146700   3.396345   3.872800
    14  H    3.872800   3.396345   2.146700   1.070000   2.146700
    15  H    2.146700   3.396345   3.872800   3.396345   2.146700
    16  H    4.693509   4.965039   6.347206   7.300676   7.118798
    17  H    4.693509   5.919617   7.118798   7.300676   6.347206
    18  Cl   3.057342   4.456874   5.254079   4.983028   3.783409
    19  Cl   4.048303   4.562800   4.048303   2.743718   1.760000
    20  Cl   6.102800   6.910901   8.294174   8.905600   8.294174
    21  Cl   4.048303   2.743718   1.760000   2.743718   4.048303
    22  Cl   3.057342   2.563702   3.783409   4.983028   5.254079
                    6          7          8          9         10
     6  C    0.000000
     7  C    2.548270   0.000000
     8  C    3.813607   1.401400   0.000000
     9  C    4.975106   2.427296   1.401400   0.000000
    10  C    5.187469   2.802800   2.427296   1.401400   0.000000
    11  C    4.342800   2.427296   2.802800   2.427296   1.401400
    12  C    2.941400   1.401400   2.427296   2.802800   2.427296
    13  H    3.396345   2.736837   2.578650   3.918930   4.990735
    14  H    3.396345   5.412800   6.232802   7.612271   8.215600
    15  H    1.070000   2.736837   4.127917   5.074276   4.990735
    16  H    5.919617   3.396345   2.146700   1.070000   2.146700
    17  H    4.965039   3.396345   3.872800   3.396345   2.146700
    18  Cl   2.563702   2.743718   4.048303   4.562800   4.048303
    19  Cl   2.743718   5.286324   6.549198   7.713260   7.819846
    20  Cl   6.910901   4.562800   4.048303   2.743718   1.760000
    21  Cl   4.562800   5.286324   5.440665   6.797295   7.819846
    22  Cl   4.456874   2.743718   1.760000   2.743718   4.048303
                   11         12         13         14         15
    11  C    0.000000
    12  C    1.401400   0.000000
    13  H    5.074276   4.127917   0.000000
    14  H    7.612271   6.232802   4.280590   0.000000
    15  H    3.918930   2.578650   4.280590   4.280590   0.000000
    16  H    3.396345   3.872800   4.342800   8.329571   6.097816
    17  H    1.070000   2.146700   6.097816   8.329571   4.342800
    18  Cl   2.743718   1.760000   5.111382   5.906383   1.639199
    19  Cl   6.797295   5.440665   5.632800   2.879094   2.879094
    20  Cl   2.743718   4.048303   6.623817   9.975600   6.623817
    21  Cl   7.713260   6.549198   2.879094   2.879094   5.632800
    22  Cl   4.562800   4.048303   1.639199   5.906383   5.111382
                   16         17         18         19         20
    16  H    0.000000
    17  H    4.280590   0.000000
    18  Cl   5.632800   2.879094   0.000000
    19  Cl   8.663168   7.184095   4.342800   0.000000
    20  Cl   2.879094   2.879094   5.475705   9.488480   0.000000
    21  Cl   7.184095   8.663168   6.988795   5.475705   9.488480
    22  Cl   2.879094   5.632800   5.475705   6.988795   5.475705
                   21         22
    21  Cl   0.000000
    22  Cl   4.342800   0.000000
 Stoichiometry    C12H5Cl5
 Framework group  C1[X(C12H5Cl5)]
 Deg. of freedom    60
 Full point group                 C1      NOp   1
 Largest Abelian subgroup         C1      NOp   1
 Largest concise Abelian subgroup C1      NOp   1
                         Standard orientation:                         
 ---------------------------------------------------------------------
 Center     Atomic      Atomic             Coordinates (Angstroms)
 Number     Number       Type             X           Y           Z
 ---------------------------------------------------------------------
      1          6           0       -0.667963    0.000000    0.000001
      2          6           0       -1.368663    1.213648    0.000002
      3          6           0       -2.770063    1.213648    0.000001
      4          6           0       -3.470763    0.000000   -0.000000
      5          6           0       -2.770063   -1.213648    0.000001
      6          6           0       -1.368663   -1.213648    0.000001
      7          6           0        0.872037    0.000000   -0.000000
      8          6           0        1.572737    1.213648   -0.000004
      9          6           0        2.974137    1.213648   -0.000003
     10          6           0        3.674837    0.000000    0.000001
     11          6           0        2.974137   -1.213648    0.000001
     12          6           0        1.572737   -1.213648    0.000000
     13          1           0       -0.833663    2.140295    0.000004
     14          1           0       -4.540763    0.000000   -0.000001
     15          1           0       -0.833663   -2.140295    0.000001
     16          1           0        3.509137    2.140295   -0.000003
     17          1           0        3.509137   -2.140295    0.000001
     18         17           0        0.692737   -2.737853   -0.000002
     19         17           0       -3.650063   -2.737853   -0.000001
     20         17           0        5.434837    0.000000    0.000004
     21         17           0       -3.650063    2.737853    0.000004
     22         17           0        0.692737    2.737853   -0.000006
 ---------------------------------------------------------------------
 Rotational constants (GHZ):           0.4182380           0.1762693           0.1240061
 Standard basis: 6-311+G(d,p) (5D, 7F)
 There are   461 symmetry adapted cartesian basis functions of A   symmetry.
 There are   444 symmetry adapted basis functions of A   symmetry.
   444 basis functions,   737 primitive gaussians,   461 cartesian basis functions
    81 alpha electrons       81 beta electrons
       nuclear repulsion energy      1704.5521180072 Hartrees.
 NAtoms=   22 NActive=   22 NUniq=   22 SFac= 1.00D+00 NAtFMM=   60 NAOKFM=F Big=F
 Integral buffers will be    131072 words long.
 Raffenetti 2 integral format.
 Two-electron integral symmetry is turned on.
 One-electron integrals computed using PRISM.
 NBasis=   444 RedAO= T EigKep=  1.76D-06  NBF=   444
 NBsUse=   438 1.00D-06 EigRej=  6.68D-07 NBFU=   438
 ExpMin= 4.38D-02 ExpMax= 1.06D+05 ExpMxC= 3.62D+03 IAcc=3 IRadAn=         5 AccDes= 0.00D+00
 Harris functional with IExCor=  402 and IRadAn=       5 diagonalized for initial guess.
 HarFok:  IExCor=  402 AccDes= 0.00D+00 IRadAn=         5 IDoV= 1 UseB2=F ITyADJ=14
 ICtDFT=  3500011 ScaDFX=  1.000000  1.000000  1.000000  1.000000
 FoFCou: FMM=F IPFlag=           0 FMFlag=      100000 FMFlg1=           0
         NFxFlg=           0 DoJE=T BraDBF=F KetDBF=T FulRan=T
         wScrn=  0.000000 ICntrl=       500 IOpCl=  0 I1Cent=   200000004 NGrid=           0
         NMat0=    1 NMatS0=      1 NMatT0=    0 NMatD0=    1 NMtDS0=    0 NMtDT0=    0
 Petite list used in FoFCou.
 Requested convergence on RMS density matrix=1.00D-08 within  32 cycles.
 Requested convergence on MAX density matrix=1.00D-06.
 Requested convergence on             energy=1.00D-06.
 No special actions if energy rises.
 SCF Done:  E(RB3LYP) =  -2761.40585804     A.U. after   16 cycles
            NFock= 16  Conv=0.20D-08     -V/T= 2.0025
 QCSCF skips out because SCF is already converged.

 **********************************************************************

            Population analysis using the SCF Density.

 **********************************************************************

 Orbital symmetries:
       Occupied  (A) (A) (A) (A) (A) (A) (A) (A) (A) (A) (A) (A)
                 (A) (A) (A) (A) (A) (A) (A) (A) (A) (A) (A) (A)
                 (A) (A) (A) (A) (A) (A) (A) (A) (A) (A) (A) (A)
                 (A) (A) (A) (A) (A) (A) (A) (A) (A) (A) (A) (A)
                 (A) (A) (A) (A) (A) (A) (A) (A) (A) (A) (A) (A)
                 (A) (A) (A) (A) (A) (A) (A) (A) (A) (A) (A) (A)
                 (A) (A) (A) (A) (A) (A) (A) (A) (A)
       Virtual   (A) (A) (A) (A) (A) (A) (A) (A) (A) (A) (A) (A)
                 (A) (A) (A) (A) (A) (A) (A) (A) (A) (A) (A) (A)
                 (A) (A) (A) (A) (A) (A) (A) (A) (A) (A) (A) (A)
                 (A) (A) (A) (A) (A) (A) (A) (A) (A) (A) (A) (A)
                 (A) (A) (A) (A) (A) (A) (A) (A) (A) (A) (A) (A)
                 (A) (A) (A) (A) (A) (A) (A) (A) (A) (A) (A) (A)
                 (A) (A) (A) (A) (A) (A) (A) (A) (A) (A) (A) (A)
                 (A) (A) (A) (A) (A) (A) (A) (A) (A) (A) (A) (A)
                 (A) (A) (A) (A) (A) (A) (A) (A) (A) (A) (A) (A)
                 (A) (A) (A) (A) (A) (A) (A) (A) (A) (A) (A) (A)
                 (A) (A) (A) (A) (A) (A) (A) (A) (A) (A) (A) (A)
                 (A) (A) (A) (A) (A) (A) (A) (A) (A) (A) (A) (A)
                 (A) (A) (A) (A) (A) (A) (A) (A) (A) (A) (A) (A)
                 (A) (A) (A) (A) (A) (A) (A) (A) (A) (A) (A) (A)
                 (A) (A) (A) (A) (A) (A) (A) (A) (A) (A) (A) (A)
                 (A) (A) (A) (A) (A) (A) (A) (A) (A) (A) (A) (A)
                 (A) (A) (A) (A) (A) (A) (A) (A) (A) (A) (A) (A)
                 (A) (A) (A) (A) (A) (A) (A) (A) (A) (A) (A) (A)
                 (A) (A) (A) (A) (A) (A) (A) (A) (A) (A) (A) (A)
                 (A) (A) (A) (A) (A) (A) (A) (A) (A) (A) (A) (A)
                 (A) (A) (A) (A) (A) (A) (A) (A) (A) (A) (A) (A)
                 (A) (A) (A) (A) (A) (A) (A) (A) (A) (A) (A) (A)
                 (A) (A) (A) (A) (A) (A) (A) (A) (A) (A) (A) (A)
                 (A) (A) (A) (A) (A) (A) (A) (A) (A) (A) (A) (A)
                 (A) (A) (A) (A) (A) (A) (A) (A) (A) (A) (A) (A)
                 (A) (A) (A) (A) (A) (A) (A) (A) (A) (A) (A) (A)
                 (A) (A) (A) (A) (A) (A) (A) (A) (A) (A) (A) (A)
                 (A) (A) (A) (A) (A) (A) (A) (A) (A) (A) (A) (A)
                 (A) (A) (A) (A) (A) (A) (A) (A) (A) (A) (A) (A)
                 (A) (A) (A) (A) (A) (A) (A) (A) (A)
 The electronic state is 1-A.
 Alpha  occ. eigenvalues -- -101.58749-101.58749-101.58381-101.56399-101.56399
 Alpha  occ. eigenvalues --  -10.28445 -10.28445 -10.28028 -10.25284 -10.25283
 Alpha  occ. eigenvalues --  -10.24533 -10.22955 -10.22954 -10.22352 -10.20394
 Alpha  occ. eigenvalues --  -10.18117 -10.18116  -9.50517  -9.50516  -9.49792
 Alpha  occ. eigenvalues --   -9.47839  -9.47838  -7.26934  -7.26934  -7.26284
 Alpha  occ. eigenvalues --   -7.25961  -7.25961  -7.25945  -7.25945  -7.25263
 Alpha  occ. eigenvalues --   -7.25230  -7.24303  -7.24303  -7.23319  -7.23319
 Alpha  occ. eigenvalues --   -7.23289  -7.23289  -0.95651  -0.92314  -0.91577
 Alpha  occ. eigenvalues --   -0.90510  -0.87977  -0.85292  -0.84087  -0.79022
 Alpha  occ. eigenvalues --   -0.78333  -0.75212  -0.74340  -0.65359  -0.65270
 Alpha  occ. eigenvalues --   -0.62470  -0.62284  -0.55470  -0.54647  -0.53858
 Alpha  occ. eigenvalues --   -0.50048  -0.49350  -0.48910  -0.48664  -0.46273
 Alpha  occ. eigenvalues --   -0.46210  -0.45976  -0.42798  -0.41946  -0.41921
 Alpha  occ. eigenvalues --   -0.41235  -0.40436  -0.40368  -0.39538  -0.37013
 Alpha  occ. eigenvalues --   -0.34722  -0.34672  -0.33590  -0.33160  -0.32380
 Alpha  occ. eigenvalues --   -0.30313  -0.29621  -0.29152  -0.28926  -0.25756
 Alpha  occ. eigenvalues --   -0.25579
 Alpha virt. eigenvalues --   -0.07703  -0.06739  -0.04903  -0.03663  -0.01709
 Alpha virt. eigenvalues --   -0.00851  -0.00792  -0.00664   0.00038   0.01355
 Alpha virt. eigenvalues --    0.01515   0.01994   0.02663   0.03668   0.04458
 Alpha virt. eigenvalues --    0.04817   0.04867   0.05361   0.05978   0.06597
 Alpha virt. eigenvalues --    0.06668   0.07978   0.08075   0.08408   0.08489
 Alpha virt. eigenvalues --    0.08539   0.08709   0.09301   0.10422   0.10471
 Alpha virt. eigenvalues --    0.10826   0.10831   0.11393   0.11674   0.11964
 Alpha virt. eigenvalues --    0.12621   0.12720   0.13086   0.13531   0.13937
 Alpha virt. eigenvalues --    0.15018   0.15195   0.15276   0.15513   0.15643
 Alpha virt. eigenvalues --    0.16748   0.17006   0.17080   0.17419   0.17837
 Alpha virt. eigenvalues --    0.18242   0.19221   0.19306   0.19954   0.20264
 Alpha virt. eigenvalues --    0.20304   0.20613   0.20726   0.20981   0.21720
 Alpha virt. eigenvalues --    0.22256   0.22505   0.22800   0.23632   0.23682
 Alpha virt. eigenvalues --    0.24213   0.24959   0.25288   0.25385   0.25984
 Alpha virt. eigenvalues --    0.26355   0.26685   0.27476   0.27479   0.29081
 Alpha virt. eigenvalues --    0.29825   0.30170   0.30366   0.31768   0.32034
 Alpha virt. eigenvalues --    0.32198   0.32276   0.33178   0.34715   0.34740
 Alpha virt. eigenvalues --    0.36739   0.36915   0.39396   0.40769   0.41080
 Alpha virt. eigenvalues --    0.41735   0.42269   0.43491   0.43676   0.44505
 Alpha virt. eigenvalues --    0.44729   0.44787   0.45613   0.46032   0.47215
 Alpha virt. eigenvalues --    0.47565   0.48170   0.48796   0.49337   0.50494
 Alpha virt. eigenvalues --    0.51203   0.51652   0.53460   0.54278   0.54400
 Alpha virt. eigenvalues --    0.55616   0.56247   0.56509   0.57928   0.58356
 Alpha virt. eigenvalues --    0.58488   0.59181   0.59274   0.59840   0.60839
 Alpha virt. eigenvalues --    0.61084   0.62225   0.63159   0.63443   0.65483
 Alpha virt. eigenvalues --    0.65614   0.67402   0.67591   0.67649   0.67881
 Alpha virt. eigenvalues --    0.68794   0.70900   0.72070   0.76472   0.77606
 Alpha virt. eigenvalues --    0.78632   0.80709   0.81108   0.81648   0.81839
 Alpha virt. eigenvalues --    0.81895   0.83168   0.83837   0.83928   0.84483
 Alpha virt. eigenvalues --    0.84554   0.85155   0.85178   0.86113   0.86515
 Alpha virt. eigenvalues --    0.86635   0.86817   0.87098   0.87221   0.87363
 Alpha virt. eigenvalues --    0.88887   0.88949   0.89443   0.89975   0.90695
 Alpha virt. eigenvalues --    0.92265   0.93524   0.94257   0.94280   0.94831
 Alpha virt. eigenvalues --    0.95240   0.95506   0.97628   0.98010   0.98602
 Alpha virt. eigenvalues --    0.98890   0.99029   1.00625   1.00826   1.02617
 Alpha virt. eigenvalues --    1.05926   1.07016   1.07719   1.09372   1.09984
 Alpha virt. eigenvalues --    1.11221   1.12137   1.14811   1.16291   1.16583
 Alpha virt. eigenvalues --    1.19109   1.19117   1.22344   1.22837   1.24563
 Alpha virt. eigenvalues --    1.26736   1.26881   1.27595   1.28094   1.30721
 Alpha virt. eigenvalues --    1.31003   1.31740   1.33669   1.35815   1.36997
 Alpha virt. eigenvalues --    1.42482   1.43894   1.46293   1.49062   1.49627
 Alpha virt. eigenvalues --    1.54173   1.55030   1.56708   1.57937   1.58576
 Alpha virt. eigenvalues --    1.58809   1.59576   1.60993   1.61064   1.64878
 Alpha virt. eigenvalues --    1.65193   1.67974   1.69929   1.70957   1.76482
 Alpha virt. eigenvalues --    1.80771   1.81834   1.83477   1.83519   1.85295
 Alpha virt. eigenvalues --    1.85809   1.87985   1.88969   1.91791   1.92133
 Alpha virt. eigenvalues --    1.93708   1.94592   1.95618   1.96695   1.96854
 Alpha virt. eigenvalues --    1.99868   2.02274   2.03618   2.05344   2.07406
 Alpha virt. eigenvalues --    2.08004   2.12057   2.12114   2.15382   2.18134
 Alpha virt. eigenvalues --    2.19676   2.23427   2.24224   2.25097   2.25927
 Alpha virt. eigenvalues --    2.26128   2.26394   2.27746   2.33094   2.33958
 Alpha virt. eigenvalues --    2.34323   2.34388   2.40366   2.40857   2.41182
 Alpha virt. eigenvalues --    2.43625   2.49993   2.50650   2.52069   2.53179
 Alpha virt. eigenvalues --    2.53534   2.55985   2.57549   2.59088   2.59854
 Alpha virt. eigenvalues --    2.60634   2.62952   2.63472   2.65005   2.69099
 Alpha virt. eigenvalues --    2.69753   2.70588   2.72713   2.74167   2.74381
 Alpha virt. eigenvalues --    2.74818   2.75350   2.78508   2.80282   2.80577
 Alpha virt. eigenvalues --    2.82068   2.82626   2.85576   2.90633   2.92593
 Alpha virt. eigenvalues --    2.95430   3.03311   3.04006   3.06858   3.09779
 Alpha virt. eigenvalues --    3.11871   3.15690   3.18013   3.20768   3.22335
 Alpha virt. eigenvalues --    3.23556   3.24411   3.33573   3.33650   3.40854
 Alpha virt. eigenvalues --    3.41444   3.53572   3.59403   3.67460   3.70303
 Alpha virt. eigenvalues --    3.75356   3.76824   3.82109   3.97047   4.07303
 Alpha virt. eigenvalues --    4.12439   4.19264   4.44673   4.78311   4.83390
 Alpha virt. eigenvalues --    9.75280   9.76479   9.78963   9.86629   9.87585
 Alpha virt. eigenvalues --   23.37639  23.55336  23.80333  23.83743  23.85546
 Alpha virt. eigenvalues --   23.88341  23.97061  24.00215  24.03337  24.05302
 Alpha virt. eigenvalues --   24.05512  24.12413  25.80290  25.80632  25.80976
 Alpha virt. eigenvalues --   25.84252  25.84372  26.09408  26.09723  26.19283
 Alpha virt. eigenvalues --   26.54124  26.60051  26.61972  26.63799  26.68719
 Alpha virt. eigenvalues --   26.75610  26.88101 215.74392 215.75474 215.78411
 Alpha virt. eigenvalues --  215.89059 215.90069
          Condensed to atoms (all electrons):
               1          2          3          4          5          6
     1  C   23.474242   1.861346  -4.520554  -1.131294  -4.520554   1.861345
     2  C    1.861346  14.098836   2.573142  -7.417179   0.530799   0.837321
     3  C   -4.520554   2.573142  20.577071  -3.916341  -4.453858   0.530799
     4  C   -1.131294  -7.417179  -3.916341  28.225028  -3.916340  -7.417178
     5  C   -4.520554   0.530799  -4.453858  -3.916340  20.577069   2.573142
     6  C    1.861345   0.837321   0.530799  -7.417178   2.573142  14.098834
     7  C    9.877325   0.062282  -2.820462  -0.993528  -2.820462   0.062281
     8  C   -3.144038  -1.142285  -0.175314   1.278176  -2.113101  -2.626184
     9  C   -5.864163   0.489806   1.249141   0.350632  -1.001107  -2.197465
    10  C   -0.924300  -0.237670   0.105009   0.069846   0.105009  -0.237670
    11  C   -5.864163  -2.197465  -1.001107   0.350632   1.249140   0.489806
    12  C   -3.144039  -2.626185  -2.113101   1.278176  -0.175314  -1.142284
    13  H   -0.290953   0.291962   0.105055   0.155503  -0.023508  -0.063193
    14  H    0.077591   0.065063  -0.001870   0.126151  -0.001870   0.065063
    15  H   -0.290953  -0.063193  -0.023508   0.155502   0.105055   0.291962
    16  H    0.027284   0.000325  -0.000141   0.000020   0.000206   0.004091
    17  H    0.027284   0.004091   0.000206   0.000020  -0.000141   0.000325
    18  Cl   0.655115   0.112316   0.212458  -0.016238  -0.881756  -0.932117
    19  Cl  -0.465482   0.218516   0.040653  -0.375671  -0.532930   0.707316
    20  Cl  -0.034410  -0.019556  -0.001143  -0.000831  -0.001143  -0.019556
    21  Cl  -0.465482   0.707316  -0.532930  -0.375671   0.040653   0.218516
    22  Cl   0.655115  -0.932117  -0.881756  -0.016238   0.212458   0.112316
               7          8          9         10         11         12
     1  C    9.877325  -3.144038  -5.864163  -0.924300  -5.864163  -3.144039
     2  C    0.062282  -1.142285   0.489806  -0.237670  -2.197465  -2.626185
     3  C   -2.820462  -0.175314   1.249141   0.105009  -1.001107  -2.113101
     4  C   -0.993528   1.278176   0.350632   0.069846   0.350632   1.278176
     5  C   -2.820462  -2.113101  -1.001107   0.105009   1.249140  -0.175314
     6  C    0.062281  -2.626184  -2.197465  -0.237670   0.489806  -1.142284
     7  C   18.771406   0.462444  -7.162157  -1.716123  -7.162157   0.462443
     8  C    0.462444  21.266068  -0.450598  -5.090070  -0.049922  -1.494370
     9  C   -7.162157  -0.450598  21.537898   1.588902  -3.187713  -0.049922
    10  C   -1.716123  -5.090070   1.588902  17.005357   1.588902  -5.090070
    11  C   -7.162157  -0.049922  -3.187713   1.588902  21.537898  -0.450598
    12  C    0.462443  -1.494370  -0.049922  -5.090070  -0.450598  21.266069
    13  H   -0.124315   0.153566   0.208171   0.050534  -0.015957  -0.002271
    14  H    0.021535   0.001746   0.000190  -0.000049   0.000190   0.001746
    15  H   -0.124315  -0.002271  -0.015957   0.050534   0.208171   0.153566
    16  H    0.118879  -0.022440   0.266079  -0.000707  -0.017347  -0.000625
    17  H    0.118879  -0.000625  -0.017347  -0.000707   0.266079  -0.022440
    18  Cl   0.199257   0.303527   0.400960  -0.389196  -0.309406  -0.799352
    19  Cl  -0.160158  -0.101932  -0.016952  -0.002980  -0.024809  -0.084659
    20  Cl  -0.135138  -0.061780   0.196350  -0.859133   0.196350  -0.061780
    21  Cl  -0.160158  -0.084659  -0.024809  -0.002980  -0.016952  -0.101932
    22  Cl   0.199258  -0.799352  -0.309407  -0.389196   0.400960   0.303527
              13         14         15         16         17         18
     1  C   -0.290953   0.077591  -0.290953   0.027284   0.027284   0.655115
     2  C    0.291962   0.065063  -0.063193   0.000325   0.004091   0.112316
     3  C    0.105055  -0.001870  -0.023508  -0.000141   0.000206   0.212458
     4  C    0.155503   0.126151   0.155502   0.000020   0.000020  -0.016238
     5  C   -0.023508  -0.001870   0.105055   0.000206  -0.000141  -0.881756
     6  C   -0.063193   0.065063   0.291962   0.004091   0.000325  -0.932117
     7  C   -0.124315   0.021535  -0.124315   0.118879   0.118879   0.199257
     8  C    0.153566   0.001746  -0.002271  -0.022440  -0.000625   0.303527
     9  C    0.208171   0.000190  -0.015957   0.266079  -0.017347   0.400960
    10  C    0.050534  -0.000049   0.050534  -0.000707  -0.000707  -0.389196
    11  C   -0.015957   0.000190   0.208171  -0.017347   0.266079  -0.309406
    12  C   -0.002271   0.001746   0.153566  -0.000625  -0.022440  -0.799352
    13  H    0.695550  -0.000512  -0.000132   0.000063  -0.000000   0.000062
    14  H   -0.000512   0.506340  -0.000512  -0.000000  -0.000000   0.000223
    15  H   -0.000132  -0.000512   0.695550  -0.000000   0.000063  -0.248796
    16  H    0.000063  -0.000000  -0.000000   0.489559  -0.000231   0.000302
    17  H   -0.000000  -0.000000   0.000063  -0.000231   0.489559  -0.021894
    18  Cl   0.000062   0.000223  -0.248796   0.000302  -0.021894  18.131085
    19  Cl   0.000840  -0.009085  -0.038750  -0.000000  -0.000006  -0.061295
    20  Cl   0.000260   0.000000   0.000260  -0.009866  -0.009866  -0.012994
    21  Cl  -0.038750  -0.009085   0.000840  -0.000006  -0.000000   0.003592
    22  Cl  -0.248796   0.000223   0.000062  -0.021894   0.000302  -0.016774
              19         20         21         22
     1  C   -0.465482  -0.034410  -0.465482   0.655115
     2  C    0.218516  -0.019556   0.707316  -0.932117
     3  C    0.040653  -0.001143  -0.532930  -0.881756
     4  C   -0.375671  -0.000831  -0.375671  -0.016238
     5  C   -0.532930  -0.001143   0.040653   0.212458
     6  C    0.707316  -0.019556   0.218516   0.112316
     7  C   -0.160158  -0.135138  -0.160158   0.199258
     8  C   -0.101932  -0.061780  -0.084659  -0.799352
     9  C   -0.016952   0.196350  -0.024809  -0.309407
    10  C   -0.002980  -0.859133  -0.002980  -0.389196
    11  C   -0.024809   0.196350  -0.016952   0.400960
    12  C   -0.084659  -0.061780  -0.101932   0.303527
    13  H    0.000840   0.000260  -0.038750  -0.248796
    14  H   -0.009085   0.000000  -0.009085   0.000223
    15  H   -0.038750   0.000260   0.000840   0.000062
    16  H   -0.000000  -0.009866  -0.000006  -0.021894
    17  H   -0.000006  -0.009866  -0.000000   0.000302
    18  Cl  -0.061295  -0.012994   0.003592  -0.016774
    19  Cl  17.512912  -0.000026  -0.015386   0.003592
    20  Cl  -0.000026  17.383160  -0.000026  -0.012994
    21  Cl  -0.015386  -0.000026  17.512912  -0.061295
    22  Cl   0.003592  -0.012994  -0.061295  18.131085
 Mulliken charges:
               1
     1  C   -1.856261
     2  C   -1.217470
     3  C    1.048555
     4  C   -0.413176
     5  C    1.048555
     6  C   -1.217470
     7  C   -0.977014
     8  C   -0.106585
     9  C    0.009468
    10  C    0.376759
    11  C    0.009468
    12  C   -0.106585
    13  H    0.146824
    14  H    0.156920
    15  H    0.146824
    16  H    0.166450
    17  H    0.166450
    18  Cl   0.670923
    19  Cl   0.406293
    20  Cl   0.463860
    21  Cl   0.406293
    22  Cl   0.670923
 Sum of Mulliken charges =  -0.00000
 Mulliken charges with hydrogens summed into heavy atoms:
               1
     1  C   -1.856261
     2  C   -1.070646
     3  C    1.048555
     4  C   -0.256257
     5  C    1.048555
     6  C   -1.070646
     7  C   -0.977014
     8  C   -0.106585
     9  C    0.175918
    10  C    0.376759
    11  C    0.175918
    12  C   -0.106585
    18  Cl   0.670923
    19  Cl   0.406293
    20  Cl   0.463860
    21  Cl   0.406293
    22  Cl   0.670923
 Electronic spatial extent (au):  <R**2>=           7540.9674
 Charge=             -0.0000 electrons
 Dipole moment (field-independent basis, Debye):
    X=              2.3861    Y=             -0.0000    Z=             -0.0000  Tot=              2.3861
 Quadrupole moment (field-independent basis, Debye-Ang):
   XX=           -135.6697   YY=           -131.9118   ZZ=           -135.6240
   XY=              0.0000   XZ=              0.0000   YZ=             -0.0000
 Traceless Quadrupole moment (field-independent basis, Debye-Ang):
   XX=             -1.2679   YY=              2.4900   ZZ=             -1.2222
   XY=              0.0000   XZ=              0.0000   YZ=             -0.0000
 Octapole moment (field-independent basis, Debye-Ang**2):
  XXX=              5.1963  YYY=             -0.0000  ZZZ=             -0.0000  XYY=             20.5392
  XXY=             -0.0000  XXZ=             -0.0000  XZZ=              0.2853  YZZ=             -0.0000
  YYZ=             -0.0000  XYZ=             -0.0000
 Hexadecapole moment (field-independent basis, Debye-Ang**3):
 XXXX=          -6900.7475 YYYY=          -2817.0103 ZZZZ=           -157.5497 XXXY=              0.0000
 XXXZ=              0.0002 YYYX=              0.0000 YYYZ=              0.0001 ZZZX=              0.0001
 ZZZY=              0.0000 XXYY=          -1636.9226 XXZZ=          -1218.2021 YYZZ=           -520.7033
 XXYZ=             -0.0000 YYXZ=              0.0000 ZZXY=              0.0000
 N-N= 1.704552118007D+03 E-N=-9.945559653419D+03  KE= 2.754479858706D+03
 Calling FoFJK, ICntrl=      2127 FMM=F ISym2X=0 I1Cent= 0 IOpClX= 0 NMat=1 NMatS=1 NMatT=0.
 ***** Axes restored to original set *****
 -------------------------------------------------------------------
 Center     Atomic                   Forces (Hartrees/Bohr)
 Number     Number              X              Y              Z
 -------------------------------------------------------------------
      1        6          -0.021077616   -0.000009722    0.000063349
      2        6           0.048977775   -0.015601097    0.001664936
      3        6          -0.012516440   -0.022601617    0.002658590
      4        6           0.000603042    0.000000258   -0.000001952
      5        6          -0.012553034    0.022590078   -0.002583102
      6        6           0.048952481    0.015646236   -0.001959511
      7        6           0.055330204    0.000025528   -0.000166134
      8        6          -0.015616864   -0.014988154    0.001784362
      9        6           0.004351225   -0.002164311    0.000238117
     10        6           0.015715861    0.000007281   -0.000047006
     11        6           0.004347713    0.002168291   -0.000264399
     12        6          -0.015641114    0.014973713   -0.001690732
     13        1           0.045001329   -0.022469690    0.002473320
     14        1           0.009533818    0.000004399   -0.000028621
     15        1           0.044964904    0.022511126   -0.002744046
     16        1          -0.004045839    0.007518337   -0.000860134
     17        1          -0.004033659   -0.007522058    0.000884412
     18       17          -0.098201569   -0.046188241    0.005647712
     19       17          -0.001496129    0.003105928   -0.000355930
     20       17           0.007171305    0.000003308   -0.000021541
     21       17          -0.001491101   -0.003107310    0.000364888
     22       17          -0.098276292    0.046097718   -0.005056577
 -------------------------------------------------------------------
 Cartesian Forces:  Max     0.098276292 RMS     0.024736926

 GradGradGradGradGradGradGradGradGradGradGradGradGradGradGradGradGradGrad
 Berny optimization.
 FormGI is forming the generalized inverse of G from B-inverse, IUseBI=4.
 Internal  Forces:  Max     0.200480774 RMS     0.050290299
 Search for a local minimum.
 Step number   1 out of a maximum of  121
 All quantities printed in internal units (Hartrees-Bohrs-Radians)
 Mixed Optimization -- RFO/linear search
 Second derivative matrix not updated -- first step.
 ITU=  0
     Eigenvalues ---    0.00237   0.01506   0.01506   0.02070   0.02070
     Eigenvalues ---    0.02070   0.02070   0.02070   0.02070   0.02070
     Eigenvalues ---    0.02070   0.02070   0.02070   0.02070   0.02070
     Eigenvalues ---    0.02070   0.02070   0.02070   0.02070   0.16000
     Eigenvalues ---    0.16000   0.16000   0.16000   0.16000   0.23478
     Eigenvalues ---    0.23478   0.23478   0.23493   0.23500   0.25000
     Eigenvalues ---    0.25000   0.25000   0.25000   0.25000   0.25000
     Eigenvalues ---    0.25000   0.25000   0.28519   0.29539   0.29539
     Eigenvalues ---    0.29539   0.29539   0.29539   0.37230   0.37230
     Eigenvalues ---    0.37230   0.37230   0.37230   0.41554   0.41554
     Eigenvalues ---    0.41554   0.41716   0.45389   0.45389   0.45389
     Eigenvalues ---    0.45389   0.45389   0.45389   0.45389   0.45389
 RFO step:  Lambda=-4.06594719D-01 EMin= 2.36824321D-03
 Linear search not attempted -- first point.
 Maximum step size (   0.300) exceeded in Quadratic search.
    -- Step size scaled by   0.389
 Iteration  1 RMS(Cart)=  0.09728643 RMS(Int)=  0.00392544
 Iteration  2 RMS(Cart)=  0.00449260 RMS(Int)=  0.00015816
 Iteration  3 RMS(Cart)=  0.00000826 RMS(Int)=  0.00015812
 Iteration  4 RMS(Cart)=  0.00000000 RMS(Int)=  0.00015812
 Variable       Old X    -DE/DX   Delta X   Delta X   Delta X     New X
                                 (Linear)    (Quad)   (Total)
    R1        2.64826   0.03229   0.00000   0.01509   0.01522   2.66349
    R2        2.64826   0.03229   0.00000   0.01509   0.01522   2.66349
    R3        2.91018   0.14890   0.00000   0.08377   0.08377   2.99395
    R4        2.64826  -0.00896   0.00000  -0.00405  -0.00405   2.64421
    R5        2.02201  -0.04210   0.00000  -0.02104  -0.02104   2.00097
    R6        2.64826  -0.04290   0.00000  -0.01988  -0.02002   2.62824
    R7        3.32592  -0.00346   0.00000  -0.00192  -0.00192   3.32400
    R8        2.64826  -0.04290   0.00000  -0.01988  -0.02002   2.62824
    R9        2.02201   0.00953   0.00000   0.00476   0.00476   2.02677
   R10        2.64826  -0.00896   0.00000  -0.00405  -0.00405   2.64421
   R11        3.32592  -0.00346   0.00000  -0.00192  -0.00192   3.32400
   R12        2.02201  -0.04210   0.00000  -0.02104  -0.02104   2.00097
   R13        2.64826   0.13998   0.00000   0.06540   0.06571   2.71397
   R14        2.64826   0.13998   0.00000   0.06540   0.06571   2.71397
   R15        2.64826  -0.01175   0.00000  -0.00532  -0.00532   2.64294
   R16        3.32592  -0.00889   0.00000  -0.00493  -0.00493   3.32099
   R17        2.64826  -0.06281   0.00000  -0.03050  -0.03081   2.61745
   R18        2.02201   0.00858   0.00000   0.00429   0.00429   2.02629
   R19        2.64826  -0.06281   0.00000  -0.03050  -0.03081   2.61745
   R20        3.32592  -0.00717   0.00000  -0.00398  -0.00398   3.32194
   R21        2.64826  -0.01175   0.00000  -0.00532  -0.00532   2.64294
   R22        2.02201   0.00858   0.00000   0.00429   0.00429   2.02629
   R23        3.32592  -0.00889   0.00000  -0.00493  -0.00493   3.32099
    A1        2.09440  -0.10951   0.00000  -0.06393  -0.06364   2.03076
    A2        2.09440   0.05475   0.00000   0.03196   0.03182   2.12621
    A3        2.09440   0.05475   0.00000   0.03196   0.03182   2.12621
    A4        2.09440   0.04946   0.00000   0.03107   0.03121   2.12561
    A5        2.09440   0.00321   0.00000   0.00365   0.00358   2.09798
    A6        2.09440  -0.05267   0.00000  -0.03473  -0.03480   2.05960
    A7        2.09440   0.02145   0.00000   0.01176   0.01162   2.10601
    A8        2.09440  -0.01027   0.00000  -0.00561  -0.00554   2.08885
    A9        2.09440  -0.01117   0.00000  -0.00615  -0.00608   2.08832
   A10        2.09440  -0.03231   0.00000  -0.02174  -0.02203   2.07237
   A11        2.09440   0.01616   0.00000   0.01087   0.01101   2.10541
   A12        2.09440   0.01616   0.00000   0.01087   0.01101   2.10541
   A13        2.09440   0.02145   0.00000   0.01176   0.01162   2.10601
   A14        2.09440  -0.01117   0.00000  -0.00615  -0.00608   2.08832
   A15        2.09440  -0.01027   0.00000  -0.00561  -0.00554   2.08885
   A16        2.09440   0.04946   0.00000   0.03107   0.03121   2.12561
   A17        2.09440   0.00321   0.00000   0.00365   0.00358   2.09798
   A18        2.09440  -0.05267   0.00000  -0.03473  -0.03480   2.05960
   A19        2.09440   0.07240   0.00000   0.04027   0.03993   2.13433
   A20        2.09440   0.07240   0.00000   0.04027   0.03993   2.13433
   A21        2.09440  -0.14481   0.00000  -0.08053  -0.07986   2.01453
   A22        2.09440   0.04075   0.00000   0.02666   0.02698   2.12138
   A23        2.09440   0.15973   0.00000   0.09342   0.09326   2.18766
   A24        2.09440  -0.20048   0.00000  -0.12009  -0.12024   1.97415
   A25        2.09440   0.03473   0.00000   0.01836   0.01803   2.11242
   A26        2.09440  -0.01766   0.00000  -0.00938  -0.00921   2.08518
   A27        2.09440  -0.01708   0.00000  -0.00898  -0.00881   2.08558
   A28        2.09440  -0.00616   0.00000  -0.00951  -0.01016   2.08424
   A29        2.09440   0.00308   0.00000   0.00475   0.00508   2.09947
   A30        2.09440   0.00308   0.00000   0.00475   0.00508   2.09947
   A31        2.09440   0.03473   0.00000   0.01836   0.01803   2.11242
   A32        2.09440  -0.01708   0.00000  -0.00898  -0.00881   2.08558
   A33        2.09440  -0.01766   0.00000  -0.00938  -0.00921   2.08518
   A34        2.09440   0.04075   0.00000   0.02666   0.02698   2.12138
   A35        2.09440   0.15973   0.00000   0.09342   0.09326   2.18766
   A36        2.09440  -0.20048   0.00000  -0.12009  -0.12024   1.97415
    D1       -0.00000  -0.00000   0.00000  -0.00000  -0.00000  -0.00000
    D2        3.14159  -0.00000   0.00000  -0.00000  -0.00000   3.14159
    D3        3.14159   0.00000   0.00000   0.00000   0.00000   3.14159
    D4       -0.00000  -0.00000   0.00000  -0.00000  -0.00000  -0.00000
    D5        0.00000   0.00000   0.00000   0.00000   0.00000   0.00000
    D6       -3.14159   0.00000   0.00000   0.00000   0.00000  -3.14159
    D7       -3.14159  -0.00000   0.00000  -0.00000  -0.00000  -3.14159
    D8        0.00000  -0.00000   0.00000  -0.00000  -0.00000   0.00000
    D9       -0.00000  -0.00000   0.00000  -0.00000  -0.00000  -0.00000
   D10        3.14159  -0.00000   0.00000  -0.00000  -0.00000   3.14159
   D11        3.14159  -0.00000   0.00000  -0.00000  -0.00000   3.14159
   D12       -0.00000  -0.00000   0.00000  -0.00000  -0.00000  -0.00000
   D13        0.00000   0.00000   0.00000   0.00000   0.00000   0.00000
   D14        3.14159   0.00000   0.00000   0.00000   0.00000   3.14159
   D15       -3.14159   0.00000   0.00000   0.00000   0.00000  -3.14159
   D16       -0.00000   0.00000   0.00000   0.00000   0.00000  -0.00000
   D17        0.00000   0.00000   0.00000   0.00000   0.00000   0.00000
   D18        3.14159  -0.00000   0.00000  -0.00000  -0.00000   3.14159
   D19       -3.14159   0.00000   0.00000   0.00000   0.00000  -3.14159
   D20        0.00000   0.00000   0.00000   0.00000   0.00000   0.00000
   D21       -0.00000  -0.00000   0.00000  -0.00000  -0.00000  -0.00000
   D22       -3.14159  -0.00000   0.00000  -0.00000  -0.00000  -3.14159
   D23        3.14159   0.00000   0.00000   0.00000   0.00000   3.14159
   D24        0.00000  -0.00000   0.00000  -0.00000  -0.00000   0.00000
   D25        0.00000  -0.00000   0.00000  -0.00000  -0.00000   0.00000
   D26       -3.14159  -0.00000   0.00000  -0.00000  -0.00000  -3.14159
   D27        3.14159   0.00000   0.00000   0.00000   0.00000   3.14159
   D28       -0.00000   0.00000   0.00000   0.00000   0.00000  -0.00000
   D29        3.14159  -0.00000   0.00000  -0.00000  -0.00000   3.14159
   D30        0.00000  -0.00000   0.00000  -0.00000  -0.00000   0.00000
   D31       -0.00000   0.00000   0.00000   0.00000   0.00000  -0.00000
   D32        3.14159   0.00000   0.00000  -0.00000  -0.00000   3.14159
   D33       -3.14159   0.00000   0.00000   0.00000   0.00000  -3.14159
   D34        0.00000   0.00000   0.00000   0.00000   0.00000   0.00000
   D35        0.00000   0.00000   0.00000   0.00000   0.00000   0.00000
   D36       -3.14159   0.00000   0.00000   0.00000   0.00000  -3.14159
   D37        0.00000   0.00000   0.00000   0.00000   0.00000   0.00000
   D38       -3.14159  -0.00000   0.00000  -0.00000  -0.00000  -3.14159
   D39        3.14159   0.00000   0.00000   0.00000   0.00000   3.14159
   D40       -0.00000   0.00000   0.00000   0.00000   0.00000  -0.00000
   D41        0.00000   0.00000   0.00000   0.00000   0.00000   0.00000
   D42       -3.14159  -0.00000   0.00000   0.00000   0.00000  -3.14159
   D43       -3.14159   0.00000   0.00000   0.00000   0.00000  -3.14159
   D44       -0.00000   0.00000   0.00000   0.00000   0.00000  -0.00000
   D45       -0.00000  -0.00000   0.00000  -0.00000  -0.00000  -0.00000
   D46        3.14159  -0.00000   0.00000  -0.00000  -0.00000   3.14159
   D47        3.14159   0.00000   0.00000   0.00000   0.00000   3.14159
   D48       -0.00000   0.00000   0.00000   0.00000   0.00000  -0.00000
   D49       -0.00000  -0.00000   0.00000  -0.00000  -0.00000  -0.00000
   D50        3.14159  -0.00000   0.00000  -0.00000  -0.00000   3.14159
   D51       -3.14159  -0.00000   0.00000  -0.00000  -0.00000   3.14159
   D52       -0.00000  -0.00000   0.00000  -0.00000  -0.00000  -0.00000
         Item               Value     Threshold  Converged?
 Maximum Force            0.200481     0.000450     NO 
 RMS     Force            0.050290     0.000300     NO 
 Maximum Displacement     0.516819     0.001800     NO 
 RMS     Displacement     0.098696     0.001200     NO 
 Predicted change in Energy=-1.457207D-01
 GradGradGradGradGradGradGradGradGradGradGradGradGradGradGradGradGradGrad

                          Input orientation:                          
 ---------------------------------------------------------------------
 Center     Atomic      Atomic             Coordinates (Angstroms)
 Number     Number       Type             X           Y           Z
 ---------------------------------------------------------------------
      1          6           0        0.722308    0.000385   -0.002399
      2          6           0        1.464545    1.190337   -0.142623
      3          6           0        2.863795    1.190141   -0.146730
      4          6           0        3.573380    0.001699   -0.010967
      5          6           0        2.865720   -1.187396    0.129054
      6          6           0        1.466472   -1.188882    0.133356
      7          6           0       -0.862012   -0.000346    0.002363
      8          6           0       -1.630149    1.205318   -0.135219
      9          6           0       -3.028596    1.186684   -0.128932
     10          6           0       -3.726261   -0.001667    0.010969
     11          6           0       -3.026672   -1.189373    0.146676
     12          6           0       -1.628196   -1.206717    0.144561
     13          1           0        0.967152    2.119051   -0.248886
     14          1           0        4.645896    0.002194   -0.014189
     15          1           0        0.970583   -2.118055    0.242602
     16          1           0       -3.568938    2.106865   -0.234075
     17          1           0       -3.565523   -2.110052    0.255062
     18         17           0       -0.958092   -2.820740    0.329807
     19         17           0        3.738905   -2.704470    0.302456
     20         17           0       -5.484149   -0.002478    0.016249
     21         17           0        3.734522    2.708019   -0.325374
     22         17           0       -0.962660    2.819958   -0.324481
 ---------------------------------------------------------------------
                    Distance matrix (angstroms):
                    1          2          3          4          5
     1  C    0.000000
     2  C    1.409456   0.000000
     3  C    2.454041   1.399256   0.000000
     4  C    2.851085   2.424330   1.390804   0.000000
     5  C    2.454041   2.773214   2.393480   1.390804   0.000000
     6  C    1.409456   2.395173   2.773214   2.424330   1.399256
     7  C    1.584328   2.617559   3.914221   4.435413   3.914221
     8  C    2.646424   3.094740   4.493985   5.342364   5.099781
     9  C    3.936064   4.493163   5.892418   6.708516   6.359699
    10  C    4.448590   5.328127   6.698815   7.299675   6.698815
    11  C    3.936064   5.090947   6.359699   6.708516   5.892418
    12  C    2.646424   3.923441   5.099781   5.342364   4.493985
    13  H    2.146963   1.058869   2.114371   3.366335   3.831448
    14  H    3.923606   3.398407   2.145849   1.072521   2.145849
    15  H    2.146963   3.367173   3.831448   3.366335   2.114371
    16  H    4.785993   5.117064   6.498312   7.449443   7.238014
    17  H    4.785993   6.029288   7.238014   7.449443   6.498312
    18  Cl   3.300432   4.709681   5.560672   5.349442   4.162890
    19  Cl   4.063131   4.532144   4.016912   2.729283   1.758986
    20  Cl   6.206486   7.052121   8.434280   9.057571   8.434280
    21  Cl   4.063131   2.736705   1.758986   2.729283   4.016912
    22  Cl   3.300432   2.929174   4.162890   5.349442   5.560672
                    6          7          8          9         10
     6  C    0.000000
     7  C    2.617559   0.000000
     8  C    3.923441   1.436172   0.000000
     9  C    5.090947   2.473937   1.398584   0.000000
    10  C    5.328127   2.864262   2.423194   1.385095   0.000000
    11  C    4.493163   2.473937   2.786446   2.391989   1.385095
    12  C    3.094740   1.436172   2.428207   2.786446   2.423194
    13  H    3.367173   2.810838   2.755685   4.104838   5.156849
    14  H    3.398407   5.507934   6.391471   7.766209   8.372196
    15  H    1.058869   2.810838   4.236905   5.201227   5.156849
    16  H    6.029288   3.438559   2.140434   1.072268   2.128545
    17  H    5.117064   3.438559   3.858713   3.362174   2.128545
    18  Cl   2.929174   2.840963   4.108169   4.533969   3.963785
    19  Cl   2.736705   5.345164   6.656181   7.818327   7.944735
    20  Cl   7.052121   4.622158   4.041662   2.732202   1.757896
    21  Cl   4.532144   5.345164   5.574403   6.934898   7.944735
    22  Cl   4.709681   2.840963   1.757392   2.640817   3.963785
                   11         12         13         14         15
    11  C    0.000000
    12  C    1.398584   0.000000
    13  H    5.201227   4.236905   0.000000
    14  H    7.766209   6.391471   4.250803   0.000000
    15  H    4.104838   2.755685   4.265517   4.250803   0.000000
    16  H    3.362174   3.858713   4.536130   8.483011   6.219680
    17  H    1.072268   2.140434   6.219680   8.483011   4.536130
    18  Cl   2.640817   1.757392   5.333196   6.284264   2.054545
    19  Cl   6.934898   5.574403   5.590434   2.872095   2.830384
    20  Cl   2.732202   4.041662   6.796357  10.130092   6.796357
    21  Cl   7.818327   6.656181   2.830384   2.872095   5.590434
    22  Cl   4.533969   4.108169   2.054545   6.284264   5.333196
                   16         17         18         19         20
    16  H    0.000000
    17  H    4.245192   0.000000
    18  Cl   5.604977   2.703583   0.000000
    19  Cl   8.765921   7.328727   4.698516   0.000000
    20  Cl   2.860075   2.860075   5.340984   9.614957   0.000000
    21  Cl   7.328727   8.765921   7.281282   5.448783   9.614957
    22  Cl   2.703583   5.604977   5.678519   7.281282   5.340984
                   21         22
    21  Cl   0.000000
    22  Cl   4.698516   0.000000
 Stoichiometry    C12H5Cl5
 Framework group  C1[X(C12H5Cl5)]
 Deg. of freedom    60
 Full point group                 C1      NOp   1
 Largest Abelian subgroup         C1      NOp   1
 Largest concise Abelian subgroup C1      NOp   1
                         Standard orientation:                         
 ---------------------------------------------------------------------
 Center     Atomic      Atomic             Coordinates (Angstroms)
 Number     Number       Type             X           Y           Z
 ---------------------------------------------------------------------
      1          6           0       -0.753546    0.000000    0.000001
      2          6           0       -1.496750    1.197586    0.000002
      3          6           0       -2.896005    1.196740    0.000002
      4          6           0       -3.604630    0.000000   -0.000000
      5          6           0       -2.896005   -1.196740    0.000001
      6          6           0       -1.496750   -1.197586    0.000001
      7          6           0        0.830782    0.000000   -0.000000
      8          6           0        1.597946    1.214104   -0.000004
      9          6           0        2.996414    1.195994   -0.000003
     10          6           0        3.695044    0.000000    0.000002
     11          6           0        2.996414   -1.195994    0.000001
     12          6           0        1.597946   -1.214104    0.000000
     13          1           0       -1.000106    2.132759    0.000005
     14          1           0       -4.677151    0.000000   -0.000001
     15          1           0       -1.000106   -2.132759    0.000001
     16          1           0        3.536013    2.122596   -0.000003
     17          1           0        3.536013   -2.122596    0.000002
     18         17           0        0.929146   -2.839260   -0.000002
     19         17           0       -3.767965   -2.724391   -0.000002
     20         17           0        5.452941    0.000000    0.000005
     21         17           0       -3.767965    2.724391    0.000005
     22         17           0        0.929146    2.839260   -0.000007
 ---------------------------------------------------------------------
 Rotational constants (GHZ):           0.4076804           0.1679533           0.1189494
 Standard basis: 6-311+G(d,p) (5D, 7F)
 There are   461 symmetry adapted cartesian basis functions of A   symmetry.
 There are   444 symmetry adapted basis functions of A   symmetry.
   444 basis functions,   737 primitive gaussians,   461 cartesian basis functions
    81 alpha electrons       81 beta electrons
       nuclear repulsion energy      1674.4031406530 Hartrees.
 NAtoms=   22 NActive=   22 NUniq=   22 SFac= 1.00D+00 NAtFMM=   60 NAOKFM=F Big=F
 Integral buffers will be    131072 words long.
 Raffenetti 2 integral format.
 Two-electron integral symmetry is turned on.
 One-electron integrals computed using PRISM.
 NBasis=   444 RedAO= T EigKep=  1.71D-06  NBF=   444
 NBsUse=   438 1.00D-06 EigRej=  8.41D-07 NBFU=   438
 Initial guess from the checkpoint file:  "./Gau-336926.chk"
 B after Tr=     0.000000   -0.000000   -0.000000
         Rot=    1.000000   -0.000000    0.000000    0.000000 Ang=  -0.00 deg.
 ExpMin= 4.38D-02 ExpMax= 1.06D+05 ExpMxC= 3.62D+03 IAcc=3 IRadAn=         5 AccDes= 0.00D+00
 Harris functional with IExCor=  402 and IRadAn=       5 diagonalized for initial guess.
 HarFok:  IExCor=  402 AccDes= 0.00D+00 IRadAn=         5 IDoV= 1 UseB2=F ITyADJ=14
 ICtDFT=  3500011 ScaDFX=  1.000000  1.000000  1.000000  1.000000
 FoFCou: FMM=F IPFlag=           0 FMFlag=      100000 FMFlg1=           0
         NFxFlg=           0 DoJE=T BraDBF=F KetDBF=T FulRan=T
         wScrn=  0.000000 ICntrl=       500 IOpCl=  0 I1Cent=   200000004 NGrid=           0
         NMat0=    1 NMatS0=      1 NMatT0=    0 NMatD0=    1 NMtDS0=    0 NMtDT0=    0
 Petite list used in FoFCou.
 Requested convergence on RMS density matrix=1.00D-08 within  32 cycles.
 Requested convergence on MAX density matrix=1.00D-06.
 Requested convergence on             energy=1.00D-06.
 No special actions if energy rises.
 SCF Done:  E(RB3LYP) =  -2761.48431295     A.U. after   15 cycles
            NFock= 15  Conv=0.49D-08     -V/T= 2.0027
 QCSCF skips out because SCF is already converged.
 Calling FoFJK, ICntrl=      2127 FMM=F ISym2X=0 I1Cent= 0 IOpClX= 0 NMat=1 NMatS=1 NMatT=0.
 ***** Axes restored to original set *****
 -------------------------------------------------------------------
 Center     Atomic                   Forces (Hartrees/Bohr)
 Number     Number              X              Y              Z
 -------------------------------------------------------------------
      1        6          -0.019927685   -0.000009193    0.000059896
      2        6           0.011623488   -0.006230656    0.000688412
      3        6          -0.012315664   -0.010914242    0.001302287
      4        6           0.003201807    0.000001457   -0.000009763
      5        6          -0.012333332    0.010902896   -0.001228071
      6        6           0.011613394    0.006241380   -0.000758287
      7        6           0.035109060    0.000016207   -0.000105332
      8        6          -0.005843217   -0.021447202    0.002504750
      9        6           0.002979632    0.000563799   -0.000074281
     10        6           0.006215167    0.000002898   -0.000018482
     11        6           0.002980541   -0.000561084    0.000056226
     12        6          -0.005877934    0.021441769   -0.002469835
     13        1           0.004569105    0.004949280   -0.000587629
     14        1           0.006917102    0.000003192   -0.000020762
     15        1           0.004577113   -0.004945073    0.000560118
     16        1          -0.002128825    0.006282428   -0.000722430
     17        1          -0.002118648   -0.006284382    0.000735192
     18       17          -0.015551946   -0.005703178    0.000707442
     19       17          -0.001867449    0.002824757   -0.000322217
     20       17           0.005602338    0.000002584   -0.000016832
     21       17          -0.001862875   -0.002826481    0.000333414
     22       17          -0.015561170    0.005688845   -0.000613816
 -------------------------------------------------------------------
 Cartesian Forces:  Max     0.035109060 RMS     0.008187459

 GradGradGradGradGradGradGradGradGradGradGradGradGradGradGradGradGradGrad
 Berny optimization.
 Using GEDIIS/GDIIS optimizer.
 FormGI is forming the generalized inverse of G from B-inverse, IUseBI=4.
 Internal  Forces:  Max     0.034111414 RMS     0.007688747
 Search for a local minimum.
 Step number   2 out of a maximum of  121
 All quantities printed in internal units (Hartrees-Bohrs-Radians)
 Mixed Optimization -- RFO/linear search
 Update second derivatives using D2CorX and points    1    2
 DE= -7.85D-02 DEPred=-1.46D-01 R= 5.38D-01
 TightC=F SS=  1.41D+00  RLast= 3.00D-01 DXNew= 5.0454D-01 8.9996D-01
 Trust test= 5.38D-01 RLast= 3.00D-01 DXMaxT set to 5.05D-01
 ITU=  1  0
 Use linear search instead of GDIIS.
     Eigenvalues ---    0.00237   0.01460   0.01468   0.02070   0.02070
     Eigenvalues ---    0.02070   0.02070   0.02070   0.02070   0.02070
     Eigenvalues ---    0.02070   0.02070   0.02070   0.02070   0.02070
     Eigenvalues ---    0.02070   0.02070   0.02070   0.02070   0.15999
     Eigenvalues ---    0.16000   0.16000   0.16000   0.16084   0.23455
     Eigenvalues ---    0.23458   0.23478   0.23497   0.23664   0.24982
     Eigenvalues ---    0.25000   0.25000   0.25000   0.25000   0.25000
     Eigenvalues ---    0.25000   0.27838   0.29532   0.29536   0.29539
     Eigenvalues ---    0.29539   0.29539   0.36266   0.37205   0.37230
     Eigenvalues ---    0.37230   0.37230   0.38279   0.41387   0.41430
     Eigenvalues ---    0.41726   0.45065   0.45328   0.45389   0.45389
     Eigenvalues ---    0.45389   0.45389   0.45389   0.45389   1.57479
 RFO step:  Lambda=-1.23296443D-02 EMin= 2.36824321D-03
 Quartic linear search produced a step of  0.34106.
 Iteration  1 RMS(Cart)=  0.03717580 RMS(Int)=  0.00123991
 Iteration  2 RMS(Cart)=  0.00139210 RMS(Int)=  0.00011429
 Iteration  3 RMS(Cart)=  0.00000026 RMS(Int)=  0.00011429
 Variable       Old X    -DE/DX   Delta X   Delta X   Delta X     New X
                                 (Linear)    (Quad)   (Total)
    R1        2.66349   0.00217   0.00519  -0.00811  -0.00294   2.66055
    R2        2.66349   0.00217   0.00519  -0.00811  -0.00294   2.66055
    R3        2.99395  -0.00581   0.02857  -0.11288  -0.08431   2.90963
    R4        2.64421  -0.00913  -0.00138  -0.02232  -0.02370   2.62050
    R5        2.00097   0.00225  -0.00717   0.02875   0.02158   2.02255
    R6        2.62824  -0.00886  -0.00683  -0.00648  -0.01329   2.61495
    R7        3.32400  -0.00340  -0.00065  -0.01282  -0.01347   3.31053
    R8        2.62824  -0.00886  -0.00683  -0.00648  -0.01329   2.61495
    R9        2.02677   0.00692   0.00162   0.01937   0.02100   2.04777
   R10        2.64421  -0.00913  -0.00138  -0.02232  -0.02370   2.62050
   R11        3.32400  -0.00340  -0.00065  -0.01282  -0.01347   3.31053
   R12        2.00097   0.00225  -0.00717   0.02875   0.02158   2.02255
   R13        2.71397   0.00905   0.02241  -0.03572  -0.01307   2.70090
   R14        2.71397   0.00905   0.02241  -0.03572  -0.01307   2.70090
   R15        2.64294  -0.00699  -0.00181  -0.01492  -0.01673   2.62621
   R16        3.32099  -0.00062  -0.00168   0.00238   0.00070   3.32169
   R17        2.61745  -0.01197  -0.01051  -0.00645  -0.01720   2.60025
   R18        2.02629   0.00653   0.00146   0.01852   0.01998   2.04627
   R19        2.61745  -0.01197  -0.01051  -0.00645  -0.01720   2.60025
   R20        3.32194  -0.00560  -0.00136  -0.02031  -0.02167   3.30028
   R21        2.64294  -0.00699  -0.00181  -0.01492  -0.01673   2.62621
   R22        2.02629   0.00653   0.00146   0.01852   0.01998   2.04627
   R23        3.32099  -0.00062  -0.00168   0.00238   0.00070   3.32169
    A1        2.03076  -0.01305  -0.02170   0.00260  -0.01915   2.01161
    A2        2.12621   0.00652   0.01085  -0.00130   0.00957   2.13579
    A3        2.12621   0.00652   0.01085  -0.00130   0.00957   2.13579
    A4        2.12561   0.00357   0.01065  -0.01196  -0.00133   2.12428
    A5        2.09798   0.00459   0.00122   0.03314   0.03438   2.13236
    A6        2.05960  -0.00816  -0.01187  -0.02119  -0.03305   2.02655
    A7        2.10601   0.00854   0.00396   0.03130   0.03528   2.14130
    A8        2.08885  -0.00462  -0.00189  -0.01771  -0.01961   2.06924
    A9        2.08832  -0.00392  -0.00207  -0.01359  -0.01567   2.07265
   A10        2.07237  -0.01119  -0.00751  -0.04129  -0.04876   2.02361
   A11        2.10541   0.00559   0.00376   0.02064   0.02438   2.12979
   A12        2.10541   0.00559   0.00376   0.02064   0.02438   2.12979
   A13        2.10601   0.00854   0.00396   0.03130   0.03528   2.14130
   A14        2.08832  -0.00392  -0.00207  -0.01359  -0.01567   2.07265
   A15        2.08885  -0.00462  -0.00189  -0.01771  -0.01961   2.06924
   A16        2.12561   0.00357   0.01065  -0.01196  -0.00133   2.12428
   A17        2.09798   0.00459   0.00122   0.03314   0.03438   2.13236
   A18        2.05960  -0.00816  -0.01187  -0.02119  -0.03305   2.02655
   A19        2.13433   0.01308   0.01362   0.02131   0.03466   2.16898
   A20        2.13433   0.01308   0.01362   0.02131   0.03466   2.16898
   A21        2.01453  -0.02616  -0.02724  -0.04261  -0.06931   1.94522
   A22        2.12138   0.01320   0.00920   0.04230   0.05175   2.17312
   A23        2.18766   0.02091   0.03181   0.00625   0.03794   2.22560
   A24        1.97415  -0.03411  -0.04101  -0.04855  -0.08968   1.88447
   A25        2.11242   0.00031   0.00615  -0.02111  -0.01522   2.09720
   A26        2.08518  -0.00152  -0.00314   0.00016  -0.00285   2.08233
   A27        2.08558   0.00121  -0.00301   0.02094   0.01807   2.10365
   A28        2.08424  -0.00086  -0.00346   0.00023  -0.00374   2.08049
   A29        2.09947   0.00043   0.00173  -0.00012   0.00187   2.10135
   A30        2.09947   0.00043   0.00173  -0.00012   0.00187   2.10135
   A31        2.11242   0.00031   0.00615  -0.02111  -0.01522   2.09720
   A32        2.08558   0.00121  -0.00301   0.02094   0.01807   2.10365
   A33        2.08518  -0.00152  -0.00314   0.00016  -0.00285   2.08233
   A34        2.12138   0.01320   0.00920   0.04230   0.05175   2.17312
   A35        2.18766   0.02091   0.03181   0.00625   0.03794   2.22560
   A36        1.97415  -0.03411  -0.04101  -0.04855  -0.08968   1.88447
    D1       -0.00000   0.00000  -0.00000   0.00000   0.00000  -0.00000
    D2        3.14159  -0.00000  -0.00000   0.00000  -0.00000   3.14159
    D3        3.14159   0.00000   0.00000   0.00000   0.00000  -3.14159
    D4       -0.00000   0.00000  -0.00000   0.00000   0.00000  -0.00000
    D5        0.00000   0.00000   0.00000   0.00000   0.00000   0.00000
    D6       -3.14159   0.00000   0.00000  -0.00000  -0.00000  -3.14159
    D7       -3.14159  -0.00000  -0.00000  -0.00000  -0.00000  -3.14159
    D8        0.00000  -0.00000  -0.00000  -0.00000  -0.00000   0.00000
    D9       -0.00000  -0.00000  -0.00000  -0.00001  -0.00001  -0.00001
   D10        3.14159  -0.00000  -0.00000  -0.00001  -0.00001   3.14158
   D11        3.14159  -0.00000  -0.00000  -0.00001  -0.00001   3.14158
   D12       -0.00000  -0.00000  -0.00000  -0.00001  -0.00001  -0.00001
   D13        0.00000  -0.00000   0.00000  -0.00000  -0.00000   0.00000
   D14        3.14159   0.00000   0.00000   0.00000   0.00000   3.14159
   D15       -3.14159   0.00000   0.00000   0.00000   0.00000  -3.14159
   D16       -0.00000   0.00000   0.00000   0.00000   0.00000   0.00000
   D17        0.00000  -0.00000   0.00000  -0.00000  -0.00000   0.00000
   D18        3.14159   0.00000  -0.00000   0.00000   0.00000  -3.14159
   D19       -3.14159  -0.00000   0.00000  -0.00000  -0.00000  -3.14159
   D20        0.00000  -0.00000   0.00000  -0.00000  -0.00000   0.00000
   D21       -0.00000   0.00000  -0.00000   0.00000   0.00000  -0.00000
   D22       -3.14159  -0.00000  -0.00000  -0.00000  -0.00000   3.14159
   D23        3.14159   0.00000   0.00000   0.00000   0.00000  -3.14159
   D24        0.00000  -0.00000  -0.00000  -0.00000  -0.00000  -0.00000
   D25        0.00000  -0.00000  -0.00000  -0.00000  -0.00000  -0.00000
   D26       -3.14159  -0.00000  -0.00000  -0.00000  -0.00000   3.14159
   D27        3.14159   0.00000   0.00000   0.00000   0.00000   3.14159
   D28       -0.00000   0.00000   0.00000   0.00000   0.00000  -0.00000
   D29        3.14159  -0.00000  -0.00000   0.00000   0.00000   3.14159
   D30        0.00000  -0.00000  -0.00000  -0.00000  -0.00001  -0.00000
   D31       -0.00000   0.00000   0.00000   0.00000   0.00000  -0.00000
   D32        3.14159  -0.00000  -0.00000  -0.00000  -0.00000   3.14159
   D33       -3.14159   0.00000   0.00000   0.00000   0.00000  -3.14159
   D34        0.00000   0.00000   0.00000   0.00000   0.00000   0.00000
   D35        0.00000  -0.00000   0.00000  -0.00000  -0.00000   0.00000
   D36       -3.14159  -0.00000   0.00000  -0.00000  -0.00000  -3.14159
   D37        0.00000  -0.00000   0.00000  -0.00000  -0.00000  -0.00000
   D38       -3.14159  -0.00000  -0.00000  -0.00000  -0.00000   3.14159
   D39        3.14159   0.00000   0.00000   0.00000   0.00000  -3.14159
   D40       -0.00000   0.00000   0.00000   0.00000   0.00000   0.00000
   D41        0.00000  -0.00000   0.00000  -0.00000  -0.00000   0.00000
   D42       -3.14159   0.00000   0.00000   0.00000   0.00000  -3.14159
   D43       -3.14159   0.00000   0.00000  -0.00000  -0.00000  -3.14159
   D44       -0.00000   0.00000   0.00000   0.00000   0.00000   0.00000
   D45       -0.00000   0.00000  -0.00000   0.00000   0.00000  -0.00000
   D46        3.14159   0.00000  -0.00000   0.00000   0.00000   3.14159
   D47        3.14159   0.00000   0.00000   0.00000   0.00000   3.14159
   D48       -0.00000   0.00000   0.00000   0.00000   0.00000  -0.00000
   D49       -0.00000  -0.00000  -0.00000  -0.00000  -0.00000  -0.00000
   D50        3.14159  -0.00000  -0.00000  -0.00000  -0.00000   3.14159
   D51        3.14159  -0.00000  -0.00000  -0.00000  -0.00000   3.14159
   D52       -0.00000   0.00000  -0.00000   0.00000   0.00000  -0.00000
         Item               Value     Threshold  Converged?
 Maximum Force            0.034111     0.000450     NO 
 RMS     Force            0.007689     0.000300     NO 
 Maximum Displacement     0.221555     0.001800     NO 
 RMS     Displacement     0.037457     0.001200     NO 
 Predicted change in Energy=-3.192288D-03
 GradGradGradGradGradGradGradGradGradGradGradGradGradGradGradGradGradGrad

                          Input orientation:                          
 ---------------------------------------------------------------------
 Center     Atomic      Atomic             Coordinates (Angstroms)
 Number     Number       Type             X           Y           Z
 ---------------------------------------------------------------------
      1          6           0        0.717689    0.000383   -0.002384
      2          6           0        1.470531    1.181915   -0.141668
      3          6           0        2.857157    1.166704   -0.143997
      4          6           0        3.591955    0.001708   -0.011024
      5          6           0        2.859044   -1.163965    0.126361
      6          6           0        1.472444   -1.180454    0.132367
      7          6           0       -0.822015   -0.000327    0.002244
      8          6           0       -1.627837    1.172514   -0.131418
[...]
                 (A) (A) (A) (A) (A) (A) (A) (A) (A) (A) (A) (A)
                 (A) (A) (A) (A) (A) (A) (A) (A) (A)
       Virtual   (A) (A) (A) (A) (A) (A) (A) (A) (A) (A) (A) (A)
                 (A) (A) (A) (A) (A) (A) (A) (A) (A) (A) (A) (A)
                 (A) (A) (A) (A) (A) (A) (A) (A) (A) (A) (A) (A)
                 (A) (A) (A) (A) (A) (A) (A) (A) (A) (A) (A) (A)
                 (A) (A) (A) (A) (A) (A) (A) (A) (A) (A) (A) (A)
                 (A) (A) (A) (A) (A) (A) (A) (A) (A) (A) (A) (A)
                 (A) (A) (A) (A) (A) (A) (A) (A) (A) (A) (A) (A)
                 (A) (A) (A) (A) (A) (A) (A) (A) (A) (A) (A) (A)
                 (A) (A) (A) (A) (A) (A) (A) (A) (A) (A) (A) (A)
                 (A) (A) (A) (A) (A) (A) (A) (A) (A) (A) (A) (A)
                 (A) (A) (A) (A) (A) (A) (A) (A) (A) (A) (A) (A)
                 (A) (A) (A) (A) (A) (A) (A) (A) (A) (A) (A) (A)
                 (A) (A) (A) (A) (A) (A) (A) (A) (A) (A) (A) (A)
                 (A) (A) (A) (A) (A) (A) (A) (A) (A) (A) (A) (A)
                 (A) (A) (A) (A) (A) (A) (A) (A) (A) (A) (A) (A)
                 (A) (A) (A) (A) (A) (A) (A) (A) (A) (A) (A) (A)
                 (A) (A) (A) (A) (A) (A) (A) (A) (A) (A) (A) (A)
                 (A) (A) (A) (A) (A) (A) (A) (A) (A) (A) (A) (A)
                 (A) (A) (A) (A) (A) (A) (A) (A) (A) (A) (A) (A)
                 (A) (A) (A) (A) (A) (A) (A) (A) (A) (A) (A) (A)
                 (A) (A) (A) (A) (A) (A) (A) (A) (A) (A) (A) (A)
                 (A) (A) (A) (A) (A) (A) (A) (A) (A) (A) (A) (A)
                 (A) (A) (A) (A) (A) (A) (A) (A) (A) (A) (A) (A)
                 (A) (A) (A) (A) (A) (A) (A) (A) (A) (A) (A) (A)
                 (A) (A) (A) (A) (A) (A) (A) (A) (A) (A) (A) (A)
                 (A) (A) (A) (A) (A) (A) (A) (A) (A) (A) (A) (A)
                 (A) (A) (A) (A) (A) (A) (A) (A) (A) (A) (A) (A)
                 (A) (A) (A) (A) (A) (A) (A) (A) (A) (A) (A) (A)
                 (A) (A) (A) (A) (A) (A) (A) (A) (A) (A) (A) (A)
                 (A) (A) (A) (A) (A) (A) (A) (A) (A) (A) (A) (A)
 The electronic state is 1-A.
 Alpha  occ. eigenvalues -- -101.57808-101.57686-101.57686-101.56912-101.56912
 Alpha  occ. eigenvalues --  -10.27616 -10.27615 -10.27362 -10.26289 -10.26288
 Alpha  occ. eigenvalues --  -10.23614 -10.22709 -10.22064 -10.22063 -10.21282
 Alpha  occ. eigenvalues --  -10.20946 -10.20945  -9.49261  -9.49154  -9.49153
 Alpha  occ. eigenvalues --   -9.48368  -9.48367  -7.25736  -7.25629  -7.25629
 Alpha  occ. eigenvalues --   -7.24836  -7.24836  -7.24739  -7.24698  -7.24637
 Alpha  occ. eigenvalues --   -7.24637  -7.24578  -7.24578  -7.23847  -7.23847
 Alpha  occ. eigenvalues --   -7.23810  -7.23810  -0.94875  -0.92675  -0.90157
 Alpha  occ. eigenvalues --   -0.90009  -0.88967  -0.85273  -0.83608  -0.79717
 Alpha  occ. eigenvalues --   -0.76897  -0.75696  -0.75338  -0.66107  -0.63996
 Alpha  occ. eigenvalues --   -0.62578  -0.61632  -0.55552  -0.53658  -0.53398
 Alpha  occ. eigenvalues --   -0.51758  -0.49480  -0.48119  -0.46849  -0.46318
 Alpha  occ. eigenvalues --   -0.45792  -0.44600  -0.43275  -0.42985  -0.41420
 Alpha  occ. eigenvalues --   -0.40025  -0.39669  -0.38903  -0.38561  -0.37821
 Alpha  occ. eigenvalues --   -0.34869  -0.34417  -0.33976  -0.33594  -0.33074
 Alpha  occ. eigenvalues --   -0.32844  -0.32806  -0.27914  -0.27851  -0.27776
 Alpha  occ. eigenvalues --   -0.26773
 Alpha virt. eigenvalues --   -0.06055  -0.05712  -0.05092  -0.04308  -0.03519
 Alpha virt. eigenvalues --   -0.01432  -0.00680   0.00594   0.01016   0.01238
 Alpha virt. eigenvalues --    0.01633   0.01824   0.02002   0.02644   0.04056
 Alpha virt. eigenvalues --    0.04147   0.04714   0.05325   0.05643   0.06607
 Alpha virt. eigenvalues --    0.06641   0.06685   0.08359   0.08600   0.08646
 Alpha virt. eigenvalues --    0.08674   0.08930   0.09020   0.09694   0.10444
 Alpha virt. eigenvalues --    0.10546   0.11187   0.11486   0.11516   0.11640
 Alpha virt. eigenvalues --    0.11810   0.12170   0.12378   0.12691   0.12981
 Alpha virt. eigenvalues --    0.13148   0.14402   0.14480   0.14643   0.15129
 Alpha virt. eigenvalues --    0.16077   0.16717   0.17008   0.17065   0.17151
 Alpha virt. eigenvalues --    0.17725   0.18691   0.18730   0.19011   0.19154
 Alpha virt. eigenvalues --    0.19709   0.19841   0.20552   0.20637   0.21607
 Alpha virt. eigenvalues --    0.21773   0.22246   0.22582   0.22607   0.22777
 Alpha virt. eigenvalues --    0.23037   0.23187   0.23826   0.24755   0.24879
 Alpha virt. eigenvalues --    0.25923   0.26271   0.26309   0.26930   0.27234
 Alpha virt. eigenvalues --    0.27353   0.28051   0.28290   0.28410   0.28555
 Alpha virt. eigenvalues --    0.29193   0.29968   0.30675   0.31128   0.31457
 Alpha virt. eigenvalues --    0.32406   0.32685   0.33052   0.34687   0.36512
 Alpha virt. eigenvalues --    0.39080   0.40710   0.41951   0.43431   0.43896
 Alpha virt. eigenvalues --    0.44449   0.44714   0.45485   0.45906   0.46500
 Alpha virt. eigenvalues --    0.46804   0.47043   0.47361   0.48252   0.48618
 Alpha virt. eigenvalues --    0.50118   0.50366   0.50722   0.52907   0.54240
 Alpha virt. eigenvalues --    0.54853   0.55264   0.55680   0.55834   0.56544
 Alpha virt. eigenvalues --    0.57639   0.58805   0.58949   0.59585   0.60207
 Alpha virt. eigenvalues --    0.60211   0.61986   0.63172   0.63638   0.64181
 Alpha virt. eigenvalues --    0.64355   0.64514   0.65713   0.66267   0.66301
 Alpha virt. eigenvalues --    0.67280   0.67337   0.68462   0.69231   0.69953
 Alpha virt. eigenvalues --    0.70325   0.71058   0.71475   0.75333   0.78830
 Alpha virt. eigenvalues --    0.81616   0.82298   0.82425   0.82683   0.82867
 Alpha virt. eigenvalues --    0.83333   0.83562   0.83871   0.84564   0.84609
 Alpha virt. eigenvalues --    0.84686   0.84991   0.85024   0.85568   0.85782
 Alpha virt. eigenvalues --    0.85992   0.86640   0.87010   0.88317   0.88868
 Alpha virt. eigenvalues --    0.88906   0.90829   0.91024   0.92034   0.93707
 Alpha virt. eigenvalues --    0.93986   0.94508   0.94575   0.94917   0.94947
 Alpha virt. eigenvalues --    0.95881   0.96295   0.97031   0.97735   0.97916
 Alpha virt. eigenvalues --    0.98419   1.01923   1.02176   1.02775   1.04417
 Alpha virt. eigenvalues --    1.04800   1.06415   1.09085   1.10545   1.11372
 Alpha virt. eigenvalues --    1.16759   1.17377   1.17503   1.20363   1.20712
 Alpha virt. eigenvalues --    1.21099   1.23504   1.23869   1.24095   1.25472
 Alpha virt. eigenvalues --    1.29125   1.29905   1.30741   1.31140   1.31567
 Alpha virt. eigenvalues --    1.31655   1.33112   1.39499   1.40919   1.45557
 Alpha virt. eigenvalues --    1.48046   1.49469   1.53901   1.54067   1.55067
 Alpha virt. eigenvalues --    1.56432   1.56623   1.57106   1.57508   1.59412
 Alpha virt. eigenvalues --    1.59956   1.60076   1.63731   1.66329   1.68153
 Alpha virt. eigenvalues --    1.69878   1.71598   1.75869   1.78337   1.81401
 Alpha virt. eigenvalues --    1.81752   1.82247   1.85379   1.86018   1.91439
 Alpha virt. eigenvalues --    1.91545   1.92500   1.92910   1.93171   1.93483
 Alpha virt. eigenvalues --    1.94470   1.95831   1.97733   2.00873   2.03069
 Alpha virt. eigenvalues --    2.03949   2.04698   2.05341   2.05798   2.11614
 Alpha virt. eigenvalues --    2.11880   2.12367   2.15843   2.22879   2.25275
 Alpha virt. eigenvalues --    2.26043   2.26153   2.26447   2.26960   2.27975
 Alpha virt. eigenvalues --    2.28938   2.31069   2.33243   2.35471   2.38103
 Alpha virt. eigenvalues --    2.40447   2.40860   2.41536   2.46100   2.48381
 Alpha virt. eigenvalues --    2.49955   2.51201   2.51233   2.52585   2.54709
 Alpha virt. eigenvalues --    2.55741   2.56448   2.58444   2.63558   2.64024
 Alpha virt. eigenvalues --    2.65426   2.69292   2.69346   2.70264   2.70371
 Alpha virt. eigenvalues --    2.72744   2.72774   2.73961   2.74977   2.75218
 Alpha virt. eigenvalues --    2.75223   2.76710   2.77668   2.82648   2.82764
 Alpha virt. eigenvalues --    2.84029   2.88946   2.89840   2.95871   2.99350
 Alpha virt. eigenvalues --    3.08979   3.09014   3.09070   3.12540   3.13961
 Alpha virt. eigenvalues --    3.14365   3.20221   3.21169   3.21671   3.27438
 Alpha virt. eigenvalues --    3.32177   3.34446   3.35484   3.46083   3.57648
 Alpha virt. eigenvalues --    3.59641   3.69564   3.70990   3.71474   3.78716
 Alpha virt. eigenvalues --    3.81908   3.97305   4.07016   4.08961   4.10553
 Alpha virt. eigenvalues --    4.34721   4.79726   4.82005   9.75885   9.77002
 Alpha virt. eigenvalues --    9.78844   9.79420   9.83157  23.39679  23.56248
 Alpha virt. eigenvalues --   23.83934  23.85011  23.85603  23.90271  23.99553
 Alpha virt. eigenvalues --   24.03025  24.03943  24.06361  24.09832  24.14930
 Alpha virt. eigenvalues --   25.81455  25.81651  25.83147  25.84615  25.91489
 Alpha virt. eigenvalues --   26.08102  26.09468  26.17930  26.23878  26.32103
 Alpha virt. eigenvalues --   26.57602  26.60887  26.61469  26.65866  26.80613
 Alpha virt. eigenvalues --  215.74962 215.76047 215.78281 215.79019 215.83671
          Condensed to atoms (all electrons):
               1          2          3          4          5          6
     1  C   21.796004  -0.839875  -3.626157   0.776476  -3.626159  -0.840047
     2  C   -0.839875  56.207062 -13.057000 -13.087322   0.455712 -15.903790
     3  C   -3.626157 -13.057000  24.898075  -0.833440  -2.228678   0.455635
     4  C    0.776476 -13.087322  -0.833440  31.556334  -0.833496 -13.087372
     5  C   -3.626159   0.455712  -2.228678  -0.833496  24.898238 -13.057291
     6  C   -0.840047 -15.903790   0.455635 -13.087372 -13.057291  56.207634
     7  C    5.534623  -3.831176   2.141724  -0.257261   2.141752  -3.831424
     8  C   -2.931203  -1.167042  -0.672149   1.214679  -0.671961  -1.166959
     9  C   -3.478812  -0.573176  -0.119715   0.227921  -0.119328  -0.574823
    10  C   -0.340861  -0.107092  -0.035679   0.094545  -0.035687  -0.107076
    11  C   -3.478889  -0.574937  -0.119336   0.227949  -0.119693  -0.573160
    12  C   -2.931289  -1.167110  -0.671990   1.214735  -0.672140  -1.167005
    13  H    0.095004  -0.059671   0.077806   0.079594  -0.021372   0.039565
    14  H    0.035330   0.039964   0.047455   0.134729   0.047456   0.039963
    15  H    0.095005   0.039567  -0.021372   0.079593   0.077807  -0.059673
    16  H    0.027024   0.000080  -0.000213  -0.000052  -0.000214   0.000081
    17  H    0.027024   0.000081  -0.000213  -0.000052  -0.000213   0.000080
    18  Cl  -0.080111  -0.014780   0.306491  -0.225079   0.306816  -0.015533
    19  Cl  -0.203123   0.450030   0.034938  -0.130486  -1.406244   0.629949
    20  Cl  -0.040050  -0.016814   0.004754  -0.000520   0.004754  -0.016813
    21  Cl  -0.203122   0.629932  -1.406241  -0.130475   0.034938   0.450027
    22  Cl  -0.080113  -0.015522   0.306810  -0.225068   0.306513  -0.014839
               7          8          9         10         11         12
     1  C    5.534623  -2.931203  -3.478812  -0.340861  -3.478889  -2.931289
     2  C   -3.831176  -1.167042  -0.573176  -0.107092  -0.574937  -1.167110
     3  C    2.141724  -0.672149  -0.119715  -0.035679  -0.119336  -0.671990
     4  C   -0.257261   1.214679   0.227921   0.094545   0.227949   1.214735
     5  C    2.141752  -0.671961  -0.119328  -0.035687  -0.119693  -0.672140
     6  C   -3.831424  -1.166959  -0.574823  -0.107076  -0.573160  -1.167005
     7  C   19.371759  -1.543752  -5.844945  -1.003915  -5.845129  -1.543740
     8  C   -1.543752  17.203521  -4.464267  -2.504780   5.966915  -2.023634
     9  C   -5.844945  -4.464267  27.661073  -1.277039 -11.269659   5.966899
    10  C   -1.003915  -2.504780  -1.277039  15.942233  -1.276983  -2.504805
    11  C   -5.845129   5.966915 -11.269659  -1.276983  27.661283  -4.464227
    12  C   -1.543740  -2.023634   5.966899  -2.504805  -4.464227  17.203701
    13  H    0.045279   0.044167   0.010068   0.005570   0.010080   0.044167
    14  H    0.007060   0.000260   0.000025   0.000024   0.000025   0.000259
    15  H    0.045278   0.044165   0.010079   0.005570   0.010068   0.044167
    16  H    0.109725   0.076968   0.079035   0.038358   0.057042  -0.030635
    17  H    0.109727  -0.030635   0.057042   0.038357   0.079031   0.076971
    18  Cl  -0.031470  -0.591523   0.605625  -0.280644  -0.689540  -0.265688
    19  Cl  -0.083769  -0.031968  -0.002924   0.003488  -0.002910  -0.031975
    20  Cl   0.012440  -0.109090   0.281176  -1.039591   0.281176  -0.109094
    21  Cl  -0.083769  -0.031971  -0.002909   0.003488  -0.002924  -0.031967
    22  Cl  -0.031481  -0.265658  -0.689540  -0.280650   0.605627  -0.591522
              13         14         15         16         17         18
     1  C    0.095004   0.035330   0.095005   0.027024   0.027024  -0.080111
     2  C   -0.059671   0.039964   0.039567   0.000080   0.000081  -0.014780
     3  C    0.077806   0.047455  -0.021372  -0.000213  -0.000213   0.306491
     4  C    0.079594   0.134729   0.079593  -0.000052  -0.000052  -0.225079
     5  C   -0.021372   0.047456   0.077807  -0.000214  -0.000213   0.306816
     6  C    0.039565   0.039963  -0.059673   0.000081   0.000080  -0.015533
     7  C    0.045279   0.007060   0.045278   0.109725   0.109727  -0.031470
     8  C    0.044167   0.000260   0.044165   0.076968  -0.030635  -0.591523
     9  C    0.010068   0.000025   0.010079   0.079035   0.057042   0.605625
    10  C    0.005570   0.000024   0.005570   0.038358   0.038357  -0.280644
    11  C    0.010080   0.000025   0.010068   0.057042   0.079031  -0.689540
    12  C    0.044167   0.000259   0.044167  -0.030635   0.076971  -0.265688
    13  H    0.514424  -0.000210   0.000022   0.000000   0.000000  -0.005615
    14  H   -0.000210   0.492924  -0.000210  -0.000000  -0.000000  -0.000106
    15  H    0.000022  -0.000210   0.514424   0.000000   0.000000  -0.005613
    16  H    0.000000  -0.000000   0.000000   0.491626  -0.000228   0.000269
    17  H    0.000000  -0.000000   0.000000  -0.000228   0.491626  -0.007081
    18  Cl  -0.005615  -0.000106  -0.005613   0.000269  -0.007081  17.678032
    19  Cl  -0.000178  -0.007705  -0.016818  -0.000009  -0.000009  -0.002309
    20  Cl   0.000053   0.000000   0.000053  -0.013211  -0.013211  -0.025288
    21  Cl  -0.016818  -0.007705  -0.000178  -0.000009  -0.000009  -0.002301
    22  Cl  -0.005613  -0.000106  -0.005615  -0.007081   0.000269  -0.043001
              19         20         21         22
     1  C   -0.203123  -0.040050  -0.203122  -0.080113
     2  C    0.450030  -0.016814   0.629932  -0.015522
     3  C    0.034938   0.004754  -1.406241   0.306810
     4  C   -0.130486  -0.000520  -0.130475  -0.225068
     5  C   -1.406244   0.004754   0.034938   0.306513
     6  C    0.629949  -0.016813   0.450027  -0.014839
     7  C   -0.083769   0.012440  -0.083769  -0.031481
     8  C   -0.031968  -0.109090  -0.031971  -0.265658
     9  C   -0.002924   0.281176  -0.002909  -0.689540
    10  C    0.003488  -1.039591   0.003488  -0.280650
    11  C   -0.002910   0.281176  -0.002924   0.605627
    12  C   -0.031975  -0.109094  -0.031967  -0.591522
    13  H   -0.000178   0.000053  -0.016818  -0.005613
    14  H   -0.007705   0.000000  -0.007705  -0.000106
    15  H   -0.016818   0.000053  -0.000178  -0.005615
    16  H   -0.000009  -0.013211  -0.000009  -0.007081
    17  H   -0.000009  -0.013211  -0.000009   0.000269
    18  Cl  -0.002309  -0.025288  -0.002301  -0.043001
    19  Cl  17.404557   0.000070  -0.016477  -0.002301
    20  Cl   0.000070  17.398454   0.000070  -0.025288
    21  Cl  -0.016477   0.000070  17.404555  -0.002309
    22  Cl  -0.002301  -0.025288  -0.002309  17.678039
 Mulliken charges:
               1
     1  C    0.313321
     2  C   -1.407121
     3  C    0.518495
     4  C   -0.795931
     5  C    0.518492
     6  C   -1.407130
     7  C    0.412465
     8  C   -0.344083
     9  C   -0.481808
    10  C    0.663169
    11  C   -0.481810
    12  C   -0.344080
    13  H    0.143679
    14  H    0.170567
    15  H    0.143679
    16  H    0.171442
    17  H    0.171442
    18  Cl   0.388448
    19  Cl   0.416173
    20  Cl   0.425971
    21  Cl   0.416172
    22  Cl   0.388449
 Sum of Mulliken charges =  -0.00000
 Mulliken charges with hydrogens summed into heavy atoms:
               1
     1  C    0.313321
     2  C   -1.263442
     3  C    0.518495
     4  C   -0.625365
     5  C    0.518492
     6  C   -1.263452
     7  C    0.412465
     8  C   -0.344083
     9  C   -0.310366
    10  C    0.663169
    11  C   -0.310367
    12  C   -0.344080
    18  Cl   0.388448
    19  Cl   0.416173
    20  Cl   0.425971
    21  Cl   0.416172
    22  Cl   0.388449
 Electronic spatial extent (au):  <R**2>=           7459.7084
 Charge=              0.0000 electrons
 Dipole moment (field-independent basis, Debye):
    X=              1.2574    Y=              0.0000    Z=              0.0000  Tot=              1.2574
 Quadrupole moment (field-independent basis, Debye-Ang):
   XX=           -133.5228   YY=           -133.4293   ZZ=           -134.9676
   XY=             -0.0000   XZ=             -0.0000   YZ=             -0.0108
 Traceless Quadrupole moment (field-independent basis, Debye-Ang):
   XX=              0.4504   YY=              0.5440   ZZ=             -0.9944
   XY=             -0.0000   XZ=             -0.0000   YZ=             -0.0108
 Octapole moment (field-independent basis, Debye-Ang**2):
  XXX=            -14.9617  YYY=              0.0000  ZZZ=             -0.0001  XYY=             11.7337
  XXY=             -0.0000  XXZ=             -0.0002  XZZ=              7.0602  YZZ=              0.0001
  YYZ=             -0.0001  XYZ=             -0.0312
 Hexadecapole moment (field-independent basis, Debye-Ang**3):
 XXXX=          -6806.9636 YYYY=          -1469.7736 ZZZZ=          -1474.3143 XXXY=             -0.0002
 XXXZ=             -0.0004 YYYX=             -0.0001 YYYZ=             -0.6573 ZZZX=             -0.0002
 ZZZY=              0.4925 XXYY=          -1363.0533 XXZZ=          -1443.7794 YYZZ=           -517.9499
 XXYZ=             -0.5832 YYXZ=             -0.0000 ZZXY=             -0.0002
 N-N= 1.689010317226D+03 E-N=-9.914531866843D+03  KE= 2.754122239744D+03
 1\1\GINC-CN120\FOpt\RB3LYP\6-311+G(d,p)\C12H5Cl5\20CY91R06\02-Apr-2022
 \0\\# opt b3lyp/6-311+g(d,p) scf=xqc\\Title Card Required\\0,1\C,0.670
 3236618,0.000355397,-0.0021363057\C,1.3642196098,0.7445060357,-0.95856
 876\C,2.7543562043,0.7339598188,-0.9481693322\C,3.4742518987,0.0016250
 66,-0.0101372244\C,2.7603860201,-0.7313583705,0.9319862174\C,1.3703408
 106,-0.7431610831,0.9503206908\C,-0.8230359554,-0.0003200935,0.0021294
 077\C,-1.5618946032,0.9392056904,0.7365774706\C,-2.953050394,0.9543882
 034,0.7528643988\C,-3.633807187,-0.0015947395,0.0101548175\C,-2.956436
 7925,-0.9569652207,-0.7364297968\C,-1.5652254165,-0.9405205023,-0.7280
 889858\H,0.8304252485,1.323561522,-1.7004099331\H,4.5552712838,0.00211
 57905,-0.0132221328\H,0.8413135018,-1.3226938294,1.6951977767\H,-3.487
 2668256,1.6945920124,1.3313237973\H,-3.4932765955,-1.697659392,-1.3118
 246601\Cl,-0.734210242,-2.1570474742,-1.6787450153\Cl,3.6425561231,-1.
 6650982554,2.1279700813\Cl,-5.3854884682,-0.0023908948,0.0151608753\Cl
 ,3.6288412613,1.6685006448,-2.1491606072\Cl,-0.7265641439,2.1564756898
 ,1.6824872282\\Version=EM64L-G16RevB.01\State=1-A\HF=-2761.5231902\RMS
 D=3.374e-09\RMSF=2.290e-06\Dipole=-0.4947033,-0.0002231,0.0014127\Quad
 rupole=0.3348546,-0.0276684,-0.3071862,0.0017548,-0.0020896,0.5545664\
 PG=C01 [X(C12H5Cl5)]\\@


 FLOATING POINT NUMBERS ARE LIKE SANDPILES:
 EVERY TIME THAT YOU MOVE ONE, YOU LOSE A LITTLE SAND 
 AND YOU PICK UP A LITTLE DIRT.
 Job cpu time:       0 days 15 hours 40 minutes  9.6 seconds.
 Elapsed time:       0 days 15 hours 40 minutes  9.3 seconds.
 File lengths (MBytes):  RWF=    134 Int=      0 D2E=      0 Chk=     19 Scr=      1
 Normal termination of Gaussian 16 at Sat Apr  2 14:20:40 2022.
