 Entering Gaussian System, Link 0=g16
 Input=2,3prime,4,5-Tetrachlorobipheny.gjf
 Output=2,3prime,4,5-Tetrachlorobipheny.log
 Initial command:
 /opt/g16/l1.exe "/scratch/gour/Gau-23958.inp" -scrdir="/scratch/gour/"
 Entering Link 1 = /opt/g16/l1.exe PID=     23959.
  
 Copyright (c) 1988-2017, Gaussian, Inc.  All Rights Reserved.
  
 This is part of the Gaussian(R) 16 program.  It is based on
 the Gaussian(R) 09 system (copyright 2009, Gaussian, Inc.),
 the Gaussian(R) 03 system (copyright 2003, Gaussian, Inc.),
 the Gaussian(R) 98 system (copyright 1998, Gaussian, Inc.),
 the Gaussian(R) 94 system (copyright 1995, Gaussian, Inc.),
 the Gaussian 92(TM) system (copyright 1992, Gaussian, Inc.),
 the Gaussian 90(TM) system (copyright 1990, Gaussian, Inc.),
 the Gaussian 88(TM) system (copyright 1988, Gaussian, Inc.),
 the Gaussian 86(TM) system (copyright 1986, Carnegie Mellon
 University), and the Gaussian 82(TM) system (copyright 1983,
 Carnegie Mellon University). Gaussian is a federally registered
 trademark of Gaussian, Inc.
  
 This software contains proprietary and confidential information,
 including trade secrets, belonging to Gaussian, Inc.
  
 This software is provided under written license and may be
 used, copied, transmitted, or stored only in accord with that
 written license.
  
 The following legend is applicable only to US Government
 contracts under FAR:
  
                    RESTRICTED RIGHTS LEGEND
  
 Use, reproduction and disclosure by the US Government is
 subject to restrictions as set forth in subparagraphs (a)
 and (c) of the Commercial Computer Software - Restricted
 Rights clause in FAR 52.227-19.
  
 Gaussian, Inc.
 340 Quinnipiac St., Bldg. 40, Wallingford CT 06492
  
  
 ---------------------------------------------------------------
 Warning -- This program may not be used in any manner that
 competes with the business of Gaussian, Inc. or will provide
 assistance to any competitor of Gaussian, Inc.  The licensee
 of this program is prohibited from giving any competitor of
 Gaussian, Inc. access to this program.  By using this program,
 the user acknowledges that Gaussian, Inc. is engaged in the
 business of creating and licensing software in the field of
 computational chemistry and represents and warrants to the
 licensee that it is not a competitor of Gaussian, Inc. and that
 it will not use this program in any manner prohibited above.
 ---------------------------------------------------------------
  

 Cite this work as:
 Gaussian 16, Revision B.01,
 M. J. Frisch, G. W. Trucks, H. B. Schlegel, G. E. Scuseria, 
 M. A. Robb, J. R. Cheeseman, G. Scalmani, V. Barone, 
 G. A. Petersson, H. Nakatsuji, X. Li, M. Caricato, A. V. Marenich, 
 J. Bloino, B. G. Janesko, R. Gomperts, B. Mennucci, H. P. Hratchian, 
 J. V. Ortiz, A. F. Izmaylov, J. L. Sonnenberg, D. Williams-Young, 
 F. Ding, F. Lipparini, F. Egidi, J. Goings, B. Peng, A. Petrone, 
 T. Henderson, D. Ranasinghe, V. G. Zakrzewski, J. Gao, N. Rega, 
 G. Zheng, W. Liang, M. Hada, M. Ehara, K. Toyota, R. Fukuda, 
 J. Hasegawa, M. Ishida, T. Nakajima, Y. Honda, O. Kitao, H. Nakai, 
 T. Vreven, K. Throssell, J. A. Montgomery, Jr., J. E. Peralta, 
 F. Ogliaro, M. J. Bearpark, J. J. Heyd, E. N. Brothers, K. N. Kudin, 
 V. N. Staroverov, T. A. Keith, R. Kobayashi, J. Normand, 
 K. Raghavachari, A. P. Rendell, J. C. Burant, S. S. Iyengar, 
 J. Tomasi, M. Cossi, J. M. Millam, M. Klene, C. Adamo, R. Cammi, 
 J. W. Ochterski, R. L. Martin, K. Morokuma, O. Farkas, 
 J. B. Foresman, and D. J. Fox, Gaussian, Inc., Wallingford CT, 2016.
 
 ******************************************
 Gaussian 16:  EM64L-G16RevB.01 20-Dec-2017
                15-Mar-2022 
 ******************************************
 %mem=10GB
 %nprocshared=4
 Will use up to    4 processors via shared memory.
 --------------------------------
 # opt b3lyp/6-311+g(d,p) scf=xqc
 --------------------------------
 1/18=20,19=15,26=3,38=1/1,3;
 2/9=110,12=2,17=6,18=5,40=1/2;
 3/5=4,6=6,7=111,11=2,25=1,30=1,71=1,74=-5/1,2,3;
 4//1;
 5/5=2,8=3,13=1,38=5/2,8;
 6/7=2,8=2,9=2,10=2,28=1/1;
 7//1,2,3,16;
 1/18=20,19=15,26=3/3(2);
 2/9=110/2;
 99//99;
 2/9=110/2;
 3/5=4,6=6,7=111,11=2,25=1,30=1,71=1,74=-5/1,2,3;
 4/5=5,16=3,69=1/1;
 5/5=2,8=3,13=1,38=5/2,8;
 7//1,2,3,16;
 1/18=20,19=15,26=3/3(-5);
 2/9=110/2;
 6/7=2,8=2,9=2,10=2,19=2,28=1/1;
 99/9=1/99;
 -------------------
 Title Card Required
 -------------------
 Symbolic Z-matrix:
 Charge =  0 Multiplicity = 1
 C                     0.39504   0.83757  -0.00285 
 C                     1.72742   0.86746  -0.4362 
 C                     2.43531   2.07691  -0.44227 
 C                     1.81083   3.25648  -0.015 
 C                     0.47844   3.22659   0.41835 
 C                    -0.22945   2.01714   0.42442 
 C                    -0.38287  -0.49149   0.00382 
 C                     0.24162  -1.67106  -0.42345 
 C                    -0.46627  -2.88051  -0.41738 
 C                    -1.79865  -2.9104    0.01597 
 C                    -2.42314  -1.73083   0.44325 
 C                    -1.71525  -0.52138   0.43717 
 H                     2.20423  -0.03317  -0.76243 
 H                     3.45262   2.09973  -0.77314 
 H                     2.35132   4.17992  -0.01963 
 H                    -1.24675   1.99432   0.75529 
 H                     1.25892  -1.64824  -0.75432 
 H                    -3.44044  -1.75365   0.77412 
 Cl                   -2.49953   0.96002   0.97378 
 Cl                   -0.30584   4.70799   0.95495 
 Cl                   -2.68768  -4.42933   0.0236 
 Cl                    0.31801  -4.36191  -0.95399 
 

 GradGradGradGradGradGradGradGradGradGradGradGradGradGradGradGradGradGrad
 Berny optimization.
 Initialization pass.
                           ----------------------------
                           !    Initial Parameters    !
                           ! (Angstroms and Degrees)  !
 --------------------------                            --------------------------
 ! Name  Definition              Value          Derivative Info.                !
 --------------------------------------------------------------------------------
 ! R1    R(1,2)                  1.4014         estimate D2E/DX2                !
 ! R2    R(1,6)                  1.4014         estimate D2E/DX2                !
 ! R3    R(1,7)                  1.54           estimate D2E/DX2                !
 ! R4    R(2,3)                  1.4014         estimate D2E/DX2                !
 ! R5    R(2,13)                 1.07           estimate D2E/DX2                !
 ! R6    R(3,4)                  1.4014         estimate D2E/DX2                !
 ! R7    R(3,14)                 1.07           estimate D2E/DX2                !
 ! R8    R(4,5)                  1.4014         estimate D2E/DX2                !
 ! R9    R(4,15)                 1.07           estimate D2E/DX2                !
 ! R10   R(5,6)                  1.4014         estimate D2E/DX2                !
 ! R11   R(5,20)                 1.76           estimate D2E/DX2                !
 ! R12   R(6,16)                 1.07           estimate D2E/DX2                !
 ! R13   R(7,8)                  1.4014         estimate D2E/DX2                !
 ! R14   R(7,12)                 1.4014         estimate D2E/DX2                !
 ! R15   R(8,9)                  1.4014         estimate D2E/DX2                !
 ! R16   R(8,17)                 1.07           estimate D2E/DX2                !
 ! R17   R(9,10)                 1.4014         estimate D2E/DX2                !
 ! R18   R(9,22)                 1.76           estimate D2E/DX2                !
 ! R19   R(10,11)                1.4014         estimate D2E/DX2                !
 ! R20   R(10,21)                1.76           estimate D2E/DX2                !
 ! R21   R(11,12)                1.4014         estimate D2E/DX2                !
 ! R22   R(11,18)                1.07           estimate D2E/DX2                !
 ! R23   R(12,19)                1.76           estimate D2E/DX2                !
 ! A1    A(2,1,6)              120.0            estimate D2E/DX2                !
 ! A2    A(2,1,7)              120.0            estimate D2E/DX2                !
 ! A3    A(6,1,7)              120.0            estimate D2E/DX2                !
 ! A4    A(1,2,3)              120.0            estimate D2E/DX2                !
 ! A5    A(1,2,13)             120.0            estimate D2E/DX2                !
 ! A6    A(3,2,13)             120.0            estimate D2E/DX2                !
 ! A7    A(2,3,4)              120.0            estimate D2E/DX2                !
 ! A8    A(2,3,14)             120.0            estimate D2E/DX2                !
 ! A9    A(4,3,14)             120.0            estimate D2E/DX2                !
 ! A10   A(3,4,5)              120.0            estimate D2E/DX2                !
 ! A11   A(3,4,15)             120.0            estimate D2E/DX2                !
 ! A12   A(5,4,15)             120.0            estimate D2E/DX2                !
 ! A13   A(4,5,6)              120.0            estimate D2E/DX2                !
 ! A14   A(4,5,20)             120.0            estimate D2E/DX2                !
 ! A15   A(6,5,20)             120.0            estimate D2E/DX2                !
 ! A16   A(1,6,5)              120.0            estimate D2E/DX2                !
 ! A17   A(1,6,16)             120.0            estimate D2E/DX2                !
 ! A18   A(5,6,16)             120.0            estimate D2E/DX2                !
 ! A19   A(1,7,8)              120.0            estimate D2E/DX2                !
 ! A20   A(1,7,12)             120.0            estimate D2E/DX2                !
 ! A21   A(8,7,12)             120.0            estimate D2E/DX2                !
 ! A22   A(7,8,9)              120.0            estimate D2E/DX2                !
 ! A23   A(7,8,17)             120.0            estimate D2E/DX2                !
 ! A24   A(9,8,17)             120.0            estimate D2E/DX2                !
 ! A25   A(8,9,10)             120.0            estimate D2E/DX2                !
 ! A26   A(8,9,22)             120.0            estimate D2E/DX2                !
 ! A27   A(10,9,22)            120.0            estimate D2E/DX2                !
 ! A28   A(9,10,11)            120.0            estimate D2E/DX2                !
 ! A29   A(9,10,21)            120.0            estimate D2E/DX2                !
 ! A30   A(11,10,21)           120.0            estimate D2E/DX2                !
 ! A31   A(10,11,12)           120.0            estimate D2E/DX2                !
 ! A32   A(10,11,18)           120.0            estimate D2E/DX2                !
 ! A33   A(12,11,18)           120.0            estimate D2E/DX2                !
 ! A34   A(7,12,11)            120.0            estimate D2E/DX2                !
 ! A35   A(7,12,19)            120.0            estimate D2E/DX2                !
 ! A36   A(11,12,19)           120.0            estimate D2E/DX2                !
 ! D1    D(6,1,2,3)              0.0001         estimate D2E/DX2                !
 ! D2    D(6,1,2,13)           180.0            estimate D2E/DX2                !
 ! D3    D(7,1,2,3)           -180.0            estimate D2E/DX2                !
 ! D4    D(7,1,2,13)            -0.0001         estimate D2E/DX2                !
 ! D5    D(2,1,6,5)             -0.0001         estimate D2E/DX2                !
 ! D6    D(2,1,6,16)           180.0            estimate D2E/DX2                !
 ! D7    D(7,1,6,5)            180.0            estimate D2E/DX2                !
 ! D8    D(7,1,6,16)             0.0            estimate D2E/DX2                !
 ! D9    D(2,1,7,8)             -0.0001         estimate D2E/DX2                !
 ! D10   D(2,1,7,12)           179.9998         estimate D2E/DX2                !
 ! D11   D(6,1,7,8)            179.9999         estimate D2E/DX2                !
 ! D12   D(6,1,7,12)            -0.0002         estimate D2E/DX2                !
 ! D13   D(1,2,3,4)              0.0            estimate D2E/DX2                !
 ! D14   D(1,2,3,14)           180.0            estimate D2E/DX2                !
 ! D15   D(13,2,3,4)          -179.9999         estimate D2E/DX2                !
 ! D16   D(13,2,3,14)            0.0001         estimate D2E/DX2                !
 ! D17   D(2,3,4,5)             -0.0001         estimate D2E/DX2                !
 ! D18   D(2,3,4,15)           180.0            estimate D2E/DX2                !
 ! D19   D(14,3,4,5)           179.9999         estimate D2E/DX2                !
 ! D20   D(14,3,4,15)            0.0            estimate D2E/DX2                !
 ! D21   D(3,4,5,6)              0.0001         estimate D2E/DX2                !
 ! D22   D(3,4,5,20)          -179.9999         estimate D2E/DX2                !
 ! D23   D(15,4,5,6)          -180.0            estimate D2E/DX2                !
 ! D24   D(15,4,5,20)            0.0            estimate D2E/DX2                !
 ! D25   D(4,5,6,1)              0.0            estimate D2E/DX2                !
 ! D26   D(4,5,6,16)           179.9999         estimate D2E/DX2                !
 ! D27   D(20,5,6,1)           180.0            estimate D2E/DX2                !
 ! D28   D(20,5,6,16)           -0.0001         estimate D2E/DX2                !
 ! D29   D(1,7,8,9)            179.9999         estimate D2E/DX2                !
 ! D30   D(1,7,8,17)             0.0001         estimate D2E/DX2                !
 ! D31   D(12,7,8,9)             0.0001         estimate D2E/DX2                !
 ! D32   D(12,7,8,17)         -179.9998         estimate D2E/DX2                !
 ! D33   D(1,7,12,11)         -179.9999         estimate D2E/DX2                !
 ! D34   D(1,7,12,19)            0.0            estimate D2E/DX2                !
 ! D35   D(8,7,12,11)           -0.0001         estimate D2E/DX2                !
 ! D36   D(8,7,12,19)          179.9999         estimate D2E/DX2                !
 ! D37   D(7,8,9,10)             0.0            estimate D2E/DX2                !
 ! D38   D(7,8,9,22)           180.0            estimate D2E/DX2                !
 ! D39   D(17,8,9,10)          179.9998         estimate D2E/DX2                !
 ! D40   D(17,8,9,22)           -0.0002         estimate D2E/DX2                !
 ! D41   D(8,9,10,11)            0.0            estimate D2E/DX2                !
 ! D42   D(8,9,10,21)         -179.9999         estimate D2E/DX2                !
 ! D43   D(22,9,10,11)         180.0            estimate D2E/DX2                !
 ! D44   D(22,9,10,21)           0.0001         estimate D2E/DX2                !
 ! D45   D(9,10,11,12)           0.0            estimate D2E/DX2                !
 ! D46   D(9,10,11,18)        -179.9998         estimate D2E/DX2                !
 ! D47   D(21,10,11,12)        179.9999         estimate D2E/DX2                !
 ! D48   D(21,10,11,18)          0.0001         estimate D2E/DX2                !
 ! D49   D(10,11,12,7)           0.0            estimate D2E/DX2                !
 ! D50   D(10,11,12,19)       -179.9999         estimate D2E/DX2                !
 ! D51   D(18,11,12,7)         179.9999         estimate D2E/DX2                !
 ! D52   D(18,11,12,19)         -0.0001         estimate D2E/DX2                !
 --------------------------------------------------------------------------------
 Trust Radius=3.00D-01 FncErr=1.00D-07 GrdErr=1.00D-06 EigMax=2.50D+02 EigMin=1.00D-04
 Number of steps in this run=    121 maximum allowed number of steps=    132.
 GradGradGradGradGradGradGradGradGradGradGradGradGradGradGradGradGradGrad

                          Input orientation:                          
 ---------------------------------------------------------------------
 Center     Atomic      Atomic             Coordinates (Angstroms)
 Number     Number       Type             X           Y           Z
 ---------------------------------------------------------------------
      1          6           0        0.395039    0.837574   -0.002851
      2          6           0        1.727420    0.867459   -0.436198
      3          6           0        2.435314    2.076910   -0.442270
      4          6           0        1.810826    3.256475   -0.014995
      5          6           0        0.478445    3.226590    0.418349
      6          6           0       -0.229449    2.017139    0.424422
      7          6           0       -0.382866   -0.491494    0.003823
      8          6           0        0.241622   -1.671059   -0.423452
      9          6           0       -0.466271   -2.880510   -0.417378
     10          6           0       -1.798651   -2.910396    0.015972
     11          6           0       -2.423139   -1.730832    0.443247
     12          6           0       -1.715246   -0.521380    0.437173
     13          1           0        2.204231   -0.033165   -0.762429
     14          1           0        3.452617    2.099729   -0.773139
     15          1           0        2.351319    4.179918   -0.019631
     16          1           0       -1.246752    1.994321    0.755291
     17          1           0        1.258924   -1.648240   -0.754322
     18          1           0       -3.440440   -1.753651    0.774122
     19         17           0       -2.499530    0.960020    0.973785
     20         17           0       -0.305842    4.707991    0.954955
     21         17           0       -2.687684   -4.429331    0.023603
     22         17           0        0.318014   -4.361910   -0.953987
 ---------------------------------------------------------------------
                    Distance matrix (angstroms):
                    1          2          3          4          5
     1  C    0.000000
     2  C    1.401400   0.000000
     3  C    2.427296   1.401400   0.000000
     4  C    2.802800   2.427296   1.401400   0.000000
     5  C    2.427296   2.802800   2.427296   1.401400   0.000000
     6  C    1.401400   2.427296   2.802800   2.427296   1.401400
     7  C    1.540000   2.548270   3.838989   4.342800   3.838989
     8  C    2.548270   2.941400   4.342800   5.187469   4.975106
     9  C    3.838989   4.342800   5.744200   6.558176   6.235992
    10  C    4.342800   5.187469   6.558176   7.145600   6.558176
    11  C    3.838989   4.975106   6.235992   6.558176   5.744200
    12  C    2.548270   3.813607   4.975106   5.187469   4.342800
    13  H    2.146700   1.070000   2.146700   3.396345   3.872800
    14  H    3.396345   2.146700   1.070000   2.146700   3.396345
    15  H    3.872800   3.396345   2.146700   1.070000   2.146700
    16  H    2.146700   3.396345   3.872800   3.396345   2.146700
    17  H    2.736837   2.578650   3.918930   4.990735   5.074276
    18  H    4.693509   5.919617   7.118798   7.300676   6.347206
    19  Cl   3.057342   4.456874   5.254079   4.983028   3.783409
    20  Cl   4.048303   4.562800   4.048303   2.743718   1.760000
    21  Cl   6.102800   6.910901   8.294174   8.905600   8.294174
    22  Cl   5.286324   5.440665   6.797295   7.819846   7.713260
                    6          7          8          9         10
     6  C    0.000000
     7  C    2.548270   0.000000
     8  C    3.813607   1.401400   0.000000
     9  C    4.975106   2.427296   1.401400   0.000000
    10  C    5.187469   2.802800   2.427296   1.401400   0.000000
    11  C    4.342800   2.427296   2.802800   2.427296   1.401400
    12  C    2.941400   1.401400   2.427296   2.802800   2.427296
    13  H    3.396345   2.736837   2.578650   3.918930   4.990735
    14  H    3.872800   4.693509   4.965039   6.347206   7.300676
    15  H    3.396345   5.412800   6.232802   7.612271   8.215600
    16  H    1.070000   2.736837   4.127917   5.074276   4.990735
    17  H    4.127917   2.146700   1.070000   2.146700   3.396345
    18  H    4.965039   3.396345   3.872800   3.396345   2.146700
    19  Cl   2.563702   2.743718   4.048303   4.562800   4.048303
    20  Cl   2.743718   5.286324   6.549198   7.713260   7.819846
    21  Cl   6.910901   4.562800   4.048303   2.743718   1.760000
    22  Cl   6.549198   4.048303   2.743718   1.760000   2.743718
                   11         12         13         14         15
    11  C    0.000000
    12  C    1.401400   0.000000
    13  H    5.074276   4.127917   0.000000
    14  H    7.118798   5.919617   2.471400   0.000000
    15  H    7.612271   6.232802   4.280590   2.471400   0.000000
    16  H    3.918930   2.578650   4.280590   4.942800   4.280590
    17  H    3.872800   3.396345   1.871400   4.342800   5.974992
    18  H    1.070000   2.146700   6.097816   8.047159   8.329571
    19  Cl   2.743718   1.760000   5.111382   6.307038   5.906383
    20  Cl   6.797295   5.440665   5.632800   4.890332   2.879094
    21  Cl   2.743718   4.048303   6.623817   8.998151   9.975600
    22  Cl   4.048303   4.562800   4.725732   7.184095   8.830073
                   16         17         18         19         20
    16  H    0.000000
    17  H    4.671787   0.000000
    18  H    4.342800   4.942800   0.000000
    19  Cl   1.639199   4.890332   2.879094   0.000000
    20  Cl   2.879094   6.765486   7.184095   4.342800   0.000000
    21  Cl   6.623817   4.890332   2.879094   5.475705   9.488480
    22  Cl   6.765486   2.879094   4.890332   6.322800   9.289584
                   21         22
    21  Cl   0.000000
    22  Cl   3.161400   0.000000
 Stoichiometry    C12H6Cl4
 Framework group  C1[X(C12H6Cl4)]
 Deg. of freedom    60
 Full point group                 C1      NOp   1
 Largest Abelian subgroup         C1      NOp   1
 Largest concise Abelian subgroup C1      NOp   1
                         Standard orientation:                         
 ---------------------------------------------------------------------
 Center     Atomic      Atomic             Coordinates (Angstroms)
 Number     Number       Type             X           Y           Z
 ---------------------------------------------------------------------
      1          6           0       -1.252313    0.738180   -0.000000
      2          6           0       -1.533119    2.111159    0.000002
      3          6           0       -2.862557    2.554462    0.000004
      4          6           0       -3.911188    1.624788    0.000004
      5          6           0       -3.630381    0.251809   -0.000000
      6          6           0       -2.300944   -0.191494   -0.000002
      7          6           0        0.208608    0.251034   -0.000002
      8          6           0        1.257239    1.180708   -0.000002
      9          6           0        2.586676    0.737405   -0.000002
     10          6           0        2.867482   -0.635574   -0.000001
     11          6           0        1.818852   -1.565248   -0.000000
     12          6           0        0.489414   -1.121945   -0.000000
     13          1           0       -0.732466    2.820986    0.000004
     14          1           0       -3.076959    3.602762    0.000007
     15          1           0       -4.926242    1.963260    0.000006
     16          1           0       -2.086541   -1.239794   -0.000005
     17          1           0        1.042836    2.229008    0.000000
     18          1           0        2.033254   -2.613548    0.000003
     19         17           0       -0.827548   -2.289511    0.000003
     20         17           0       -4.947343   -0.915757   -0.000004
     21         17           0        4.537106   -1.192313    0.000002
     22         17           0        3.903638    1.904971   -0.000002
 ---------------------------------------------------------------------
 Rotational constants (GHZ):           0.7525970           0.1702494           0.1388413
 Standard basis: 6-311+G(d,p) (5D, 7F)
 There are   436 symmetry adapted cartesian basis functions of A   symmetry.
 There are   420 symmetry adapted basis functions of A   symmetry.
   420 basis functions,   692 primitive gaussians,   436 cartesian basis functions
    73 alpha electrons       73 beta electrons
       nuclear repulsion energy      1425.1112129051 Hartrees.
 NAtoms=   22 NActive=   22 NUniq=   22 SFac= 1.00D+00 NAtFMM=   60 NAOKFM=F Big=F
 Integral buffers will be    131072 words long.
 Raffenetti 2 integral format.
 Two-electron integral symmetry is turned on.
 One-electron integrals computed using PRISM.
 NBasis=   420 RedAO= T EigKep=  1.18D-06  NBF=   420
 NBsUse=   415 1.00D-06 EigRej=  5.20D-07 NBFU=   415
 ExpMin= 4.38D-02 ExpMax= 1.06D+05 ExpMxC= 3.62D+03 IAcc=3 IRadAn=         5 AccDes= 0.00D+00
 Harris functional with IExCor=  402 and IRadAn=       5 diagonalized for initial guess.
 HarFok:  IExCor=  402 AccDes= 0.00D+00 IRadAn=         5 IDoV= 1 UseB2=F ITyADJ=14
 ICtDFT=  3500011 ScaDFX=  1.000000  1.000000  1.000000  1.000000
 FoFCou: FMM=F IPFlag=           0 FMFlag=      100000 FMFlg1=           0
         NFxFlg=           0 DoJE=T BraDBF=F KetDBF=T FulRan=T
         wScrn=  0.000000 ICntrl=       500 IOpCl=  0 I1Cent=   200000004 NGrid=           0
         NMat0=    1 NMatS0=      1 NMatT0=    0 NMatD0=    1 NMtDS0=    0 NMtDT0=    0
 Petite list used in FoFCou.
 Requested convergence on RMS density matrix=1.00D-08 within  32 cycles.
 Requested convergence on MAX density matrix=1.00D-06.
 Requested convergence on             energy=1.00D-06.
 No special actions if energy rises.
 SCF Done:  E(RB3LYP) =  -2301.84028048     A.U. after   16 cycles
            NFock= 16  Conv=0.84D-08     -V/T= 2.0027
 QCSCF skips out because SCF is already converged.

 **********************************************************************

            Population analysis using the SCF Density.

 **********************************************************************

 Orbital symmetries:
       Occupied  (A) (A) (A) (A) (A) (A) (A) (A) (A) (A) (A) (A)
                 (A) (A) (A) (A) (A) (A) (A) (A) (A) (A) (A) (A)
                 (A) (A) (A) (A) (A) (A) (A) (A) (A) (A) (A) (A)
                 (A) (A) (A) (A) (A) (A) (A) (A) (A) (A) (A) (A)
                 (A) (A) (A) (A) (A) (A) (A) (A) (A) (A) (A) (A)
                 (A) (A) (A) (A) (A) (A) (A) (A) (A) (A) (A) (A)
                 (A)
       Virtual   (A) (A) (A) (A) (A) (A) (A) (A) (A) (A) (A) (A)
                 (A) (A) (A) (A) (A) (A) (A) (A) (A) (A) (A) (A)
                 (A) (A) (A) (A) (A) (A) (A) (A) (A) (A) (A) (A)
                 (A) (A) (A) (A) (A) (A) (A) (A) (A) (A) (A) (A)
                 (A) (A) (A) (A) (A) (A) (A) (A) (A) (A) (A) (A)
                 (A) (A) (A) (A) (A) (A) (A) (A) (A) (A) (A) (A)
                 (A) (A) (A) (A) (A) (A) (A) (A) (A) (A) (A) (A)
                 (A) (A) (A) (A) (A) (A) (A) (A) (A) (A) (A) (A)
                 (A) (A) (A) (A) (A) (A) (A) (A) (A) (A) (A) (A)
                 (A) (A) (A) (A) (A) (A) (A) (A) (A) (A) (A) (A)
                 (A) (A) (A) (A) (A) (A) (A) (A) (A) (A) (A) (A)
                 (A) (A) (A) (A) (A) (A) (A) (A) (A) (A) (A) (A)
                 (A) (A) (A) (A) (A) (A) (A) (A) (A) (A) (A) (A)
                 (A) (A) (A) (A) (A) (A) (A) (A) (A) (A) (A) (A)
                 (A) (A) (A) (A) (A) (A) (A) (A) (A) (A) (A) (A)
                 (A) (A) (A) (A) (A) (A) (A) (A) (A) (A) (A) (A)
                 (A) (A) (A) (A) (A) (A) (A) (A) (A) (A) (A) (A)
                 (A) (A) (A) (A) (A) (A) (A) (A) (A) (A) (A) (A)
                 (A) (A) (A) (A) (A) (A) (A) (A) (A) (A) (A) (A)
                 (A) (A) (A) (A) (A) (A) (A) (A) (A) (A) (A) (A)
                 (A) (A) (A) (A) (A) (A) (A) (A) (A) (A) (A) (A)
                 (A) (A) (A) (A) (A) (A) (A) (A) (A) (A) (A) (A)
                 (A) (A) (A) (A) (A) (A) (A) (A) (A) (A) (A) (A)
                 (A) (A) (A) (A) (A) (A) (A) (A) (A) (A) (A) (A)
                 (A) (A) (A) (A) (A) (A) (A) (A) (A) (A) (A) (A)
                 (A) (A) (A) (A) (A) (A) (A) (A) (A) (A) (A) (A)
                 (A) (A) (A) (A) (A) (A) (A) (A) (A) (A) (A) (A)
                 (A) (A) (A) (A) (A) (A) (A) (A) (A) (A) (A) (A)
                 (A) (A) (A) (A) (A) (A)
 The electronic state is 1-A.
 Alpha  occ. eigenvalues -- -101.58072-101.57648-101.57581-101.56097 -10.27549
 Alpha  occ. eigenvalues --  -10.27461 -10.27433 -10.24876 -10.23574 -10.22677
 Alpha  occ. eigenvalues --  -10.22236 -10.21823 -10.19967 -10.19855 -10.19779
 Alpha  occ. eigenvalues --  -10.17913  -9.49851  -9.49069  -9.49010  -9.47543
 Alpha  occ. eigenvalues --   -7.26259  -7.25566  -7.25501  -7.25298  -7.25285
 Alpha  occ. eigenvalues --   -7.24545  -7.24490  -7.24490  -7.24433  -7.24000
 Alpha  occ. eigenvalues --   -7.23029  -7.22996  -0.94696  -0.91940  -0.89815
 Alpha  occ. eigenvalues --   -0.87631  -0.85989  -0.84561  -0.79722  -0.76524
 Alpha  occ. eigenvalues --   -0.75542  -0.74060  -0.66581  -0.64269  -0.62733
 Alpha  occ. eigenvalues --   -0.60298  -0.54885  -0.53772  -0.52969  -0.50260
 Alpha  occ. eigenvalues --   -0.48920  -0.47789  -0.46766  -0.45784  -0.45278
 Alpha  occ. eigenvalues --   -0.45119  -0.42029  -0.41382  -0.41327  -0.39659
 Alpha  occ. eigenvalues --   -0.39612  -0.38090  -0.36744  -0.35505  -0.35022
 Alpha  occ. eigenvalues --   -0.33764  -0.32592  -0.32406  -0.30115  -0.29142
 Alpha  occ. eigenvalues --   -0.27672  -0.26440  -0.25159
 Alpha virt. eigenvalues --   -0.07438  -0.06067  -0.03626  -0.03380  -0.01104
 Alpha virt. eigenvalues --   -0.01091  -0.00570   0.00293   0.01044   0.01537
 Alpha virt. eigenvalues --    0.02007   0.03330   0.03479   0.04109   0.04180
 Alpha virt. eigenvalues --    0.05335   0.05567   0.06196   0.06344   0.06587
 Alpha virt. eigenvalues --    0.07836   0.08093   0.08222   0.08236   0.08862
 Alpha virt. eigenvalues --    0.09755   0.10231   0.10302   0.10850   0.11372
 Alpha virt. eigenvalues --    0.11488   0.11624   0.11752   0.12999   0.13640
 Alpha virt. eigenvalues --    0.13762   0.13881   0.14039   0.14115   0.14476
 Alpha virt. eigenvalues --    0.14968   0.16053   0.16375   0.16411   0.17349
 Alpha virt. eigenvalues --    0.17395   0.18015   0.18391   0.18778   0.19064
 Alpha virt. eigenvalues --    0.19427   0.19570   0.19856   0.20335   0.20732
 Alpha virt. eigenvalues --    0.20996   0.21193   0.22279   0.22493   0.22595
 Alpha virt. eigenvalues --    0.23099   0.23839   0.23988   0.24254   0.24738
 Alpha virt. eigenvalues --    0.24926   0.25460   0.26682   0.27211   0.27812
 Alpha virt. eigenvalues --    0.28054   0.29266   0.29613   0.30034   0.30642
 Alpha virt. eigenvalues --    0.30929   0.32262   0.32639   0.33034   0.34438
 Alpha virt. eigenvalues --    0.35427   0.36666   0.36883   0.37514   0.39981
 Alpha virt. eigenvalues --    0.42238   0.43151   0.43581   0.43929   0.44127
 Alpha virt. eigenvalues --    0.44399   0.45109   0.46182   0.46655   0.47272
 Alpha virt. eigenvalues --    0.47528   0.48031   0.50523   0.50672   0.51158
 Alpha virt. eigenvalues --    0.52074   0.53191   0.53372   0.53739   0.54229
 Alpha virt. eigenvalues --    0.55475   0.56284   0.57027   0.57128   0.58292
 Alpha virt. eigenvalues --    0.58359   0.59248   0.60364   0.61296   0.61390
 Alpha virt. eigenvalues --    0.62348   0.63286   0.64579   0.64712   0.64888
 Alpha virt. eigenvalues --    0.65506   0.67074   0.68028   0.68350   0.68355
 Alpha virt. eigenvalues --    0.69589   0.71743   0.73477   0.75984   0.76844
 Alpha virt. eigenvalues --    0.78932   0.80753   0.81077   0.81729   0.82228
 Alpha virt. eigenvalues --    0.83288   0.83525   0.84416   0.84502   0.84516
 Alpha virt. eigenvalues --    0.84937   0.85719   0.86019   0.86480   0.86825
 Alpha virt. eigenvalues --    0.87625   0.88189   0.88842   0.89524   0.89786
 Alpha virt. eigenvalues --    0.90277   0.90630   0.91459   0.92693   0.93693
 Alpha virt. eigenvalues --    0.94157   0.94682   0.95062   0.95570   0.96225
 Alpha virt. eigenvalues --    0.97549   0.98036   0.99027   0.99749   1.00948
 Alpha virt. eigenvalues --    1.01842   1.03750   1.05427   1.05939   1.07556
 Alpha virt. eigenvalues --    1.08952   1.09573   1.12291   1.12678   1.13144
 Alpha virt. eigenvalues --    1.15490   1.20517   1.21021   1.22412   1.25145
 Alpha virt. eigenvalues --    1.25200   1.26060   1.27573   1.27675   1.28847
 Alpha virt. eigenvalues --    1.30364   1.32148   1.34046   1.36169   1.38449
 Alpha virt. eigenvalues --    1.44126   1.45179   1.48018   1.50189   1.50638
 Alpha virt. eigenvalues --    1.53987   1.54632   1.54891   1.56994   1.58554
 Alpha virt. eigenvalues --    1.59208   1.59925   1.61284   1.65173   1.65962
 Alpha virt. eigenvalues --    1.67435   1.67954   1.69749   1.74520   1.74691
 Alpha virt. eigenvalues --    1.76900   1.79588   1.80304   1.82483   1.83790
 Alpha virt. eigenvalues --    1.86520   1.86902   1.87196   1.89701   1.91679
 Alpha virt. eigenvalues --    1.92935   1.94863   1.95409   1.96832   1.98491
 Alpha virt. eigenvalues --    1.99007   1.99755   2.01412   2.01951   2.03874
 Alpha virt. eigenvalues --    2.06364   2.08980   2.11459   2.13100   2.18160
 Alpha virt. eigenvalues --    2.21953   2.23450   2.24057   2.25004   2.26943
 Alpha virt. eigenvalues --    2.27325   2.27678   2.28557   2.32054   2.33459
 Alpha virt. eigenvalues --    2.35124   2.37579   2.38844   2.40681   2.41791
 Alpha virt. eigenvalues --    2.44335   2.45948   2.49458   2.51522   2.52000
 Alpha virt. eigenvalues --    2.55463   2.57881   2.58064   2.60071   2.60898
 Alpha virt. eigenvalues --    2.63326   2.63709   2.66792   2.69271   2.70002
 Alpha virt. eigenvalues --    2.72731   2.73325   2.73781   2.74706   2.74936
 Alpha virt. eigenvalues --    2.76694   2.78485   2.79201   2.80649   2.81089
 Alpha virt. eigenvalues --    2.83127   2.84089   2.85664   2.91058   2.93134
 Alpha virt. eigenvalues --    2.96450   3.04684   3.04787   3.06644   3.08498
 Alpha virt. eigenvalues --    3.12625   3.13589   3.17352   3.19931   3.22597
 Alpha virt. eigenvalues --    3.26034   3.33135   3.34836   3.38406   3.46650
 Alpha virt. eigenvalues --    3.51320   3.51972   3.61266   3.62568   3.73234
 Alpha virt. eigenvalues --    3.77844   3.83884   3.90216   4.03091   4.10685
 Alpha virt. eigenvalues --    4.16060   4.20087   4.45812   4.79121   4.83437
 Alpha virt. eigenvalues --    9.74208   9.77884   9.79472   9.87308  23.38767
 Alpha virt. eigenvalues --   23.59240  23.79451  23.86934  23.88199  23.92738
 Alpha virt. eigenvalues --   23.96100  24.01436  24.03481  24.06179  24.07692
 Alpha virt. eigenvalues --   24.14559  25.77237  25.81183  25.84492  25.86149
 Alpha virt. eigenvalues --   26.10347  26.13578  26.14759  26.50127  26.60924
 Alpha virt. eigenvalues --   26.65460  26.75721  26.82203 215.73109 215.77095
 Alpha virt. eigenvalues --  215.79052 215.89714
          Condensed to atoms (all electrons):
               1          2          3          4          5          6
     1  C   16.896411  -3.247810   0.196918  -2.408176  -2.572836   1.541366
     2  C   -3.247810  25.070253  -4.988265   4.785975  -4.061670  -7.733423
     3  C    0.196918  -4.988265  11.076686  -0.851534  -0.122647   2.098233
     4  C   -2.408176   4.785975  -0.851534  17.628535  -5.439551  -7.234049
     5  C   -2.572836  -4.061670  -0.122647  -5.439551  18.283541   1.603527
     6  C    1.541366  -7.733423   2.098233  -7.234049   1.603527  18.600897
     7  C    5.610283   0.201725  -0.448036  -0.413396  -1.464858  -2.069953
     8  C   -2.782582   4.953578  -1.699620   0.778713  -1.938455  -4.149707
     9  C   -2.153064  -1.350858   0.378725  -0.255887  -0.376198  -0.111221
    10  C   -0.157981   0.682185  -0.234297   0.129573  -0.022471  -0.120590
    11  C   -3.506788  -1.126303  -0.287621   0.299780   1.845878   0.587278
    12  C   -1.249878  -7.345595   0.739820  -0.793124   0.754458   4.156714
    13  H    0.058570   0.294118  -0.111971  -0.016992   0.001987   0.005114
    14  H    0.001536   0.040997   0.330423   0.048320  -0.046451  -0.028470
    15  H    0.046706  -0.023919  -0.062693   0.293261   0.021755   0.064752
    16  H   -0.267679   0.008462  -0.062482   0.179258   0.181819   0.178866
    17  H    0.070529   0.065648   0.035087   0.000639   0.000514   0.030407
    18  H    0.014596   0.000073   0.000741  -0.000288  -0.001722   0.006160
    19  Cl   0.726076   0.343244   0.071024  -0.022187  -0.920396  -0.918584
    20  Cl  -0.446961  -0.084558   0.273649  -0.348159  -0.709203   0.844147
    21  Cl  -0.017830  -0.016516  -0.005627   0.000088   0.000596  -0.029704
    22  Cl  -0.179330  -0.136865   0.011723  -0.008979  -0.002546  -0.033121
               7          8          9         10         11         12
     1  C    5.610283  -2.782582  -2.153064  -0.157981  -3.506788  -1.249878
     2  C    0.201725   4.953578  -1.350858   0.682185  -1.126303  -7.345595
     3  C   -0.448036  -1.699620   0.378725  -0.234297  -0.287621   0.739820
     4  C   -0.413396   0.778713  -0.255887   0.129573   0.299780  -0.793124
     5  C   -1.464858  -1.938455  -0.376198  -0.022471   1.845878   0.754458
     6  C   -2.069953  -4.149707  -0.111221  -0.120590   0.587278   4.156714
     7  C   18.858469   0.404874  -4.124234   1.284139  -4.056194  -6.824401
     8  C    0.404874  14.158251   2.091084  -3.403559   0.291648  -3.303133
     9  C   -4.124234   2.091084  21.347372  -7.255059  -2.576454   0.506685
    10  C    1.284139  -3.403559  -7.255059  23.956516   0.220928  -7.316676
    11  C   -4.056194   0.291648  -2.576454   0.220928  16.416510  -1.970799
    12  C   -6.824401  -3.303133   0.506685  -7.316676  -1.970799  29.197268
    13  H    0.053383   0.014841  -0.010094  -0.008274   0.005045   0.033985
    14  H   -0.005113   0.010621  -0.000395   0.000224   0.000244  -0.002460
    15  H    0.009691   0.002914   0.000375  -0.000019  -0.000213  -0.000272
    16  H   -0.020903   0.009901  -0.014582   0.047151   0.188783   0.026308
    17  H    0.056148   0.255939  -0.136222   0.046282  -0.041255  -0.044133
    18  H    0.082058  -0.031714  -0.005425   0.057183   0.266048  -0.018554
    19  Cl   0.224248   0.542042   0.197716  -0.667894  -0.523169  -0.560876
    20  Cl  -0.232579  -0.124620  -0.006794  -0.003509   0.001126   0.060406
    21  Cl   0.095214  -0.087566   0.098431  -0.515794   0.115010  -0.393240
    22  Cl  -0.921030   0.470549  -0.286414  -0.594873   0.325918   0.531911
              13         14         15         16         17         18
     1  C    0.058570   0.001536   0.046706  -0.267679   0.070529   0.014596
     2  C    0.294118   0.040997  -0.023919   0.008462   0.065648   0.000073
     3  C   -0.111971   0.330423  -0.062693  -0.062482   0.035087   0.000741
     4  C   -0.016992   0.048320   0.293261   0.179258   0.000639  -0.000288
     5  C    0.001987  -0.046451   0.021755   0.181819   0.000514  -0.001722
     6  C    0.005114  -0.028470   0.064752   0.178866   0.030407   0.006160
     7  C    0.053383  -0.005113   0.009691  -0.020903   0.056148   0.082058
     8  C    0.014841   0.010621   0.002914   0.009901   0.255939  -0.031714
     9  C   -0.010094  -0.000395   0.000375  -0.014582  -0.136222  -0.005425
    10  C   -0.008274   0.000224  -0.000019   0.047151   0.046282   0.057183
    11  C    0.005045   0.000244  -0.000213   0.188783  -0.041255   0.266048
    12  C    0.033985  -0.002460  -0.000272   0.026308  -0.044133  -0.018554
    13  H    0.564993  -0.007057  -0.000213  -0.000113   0.003003   0.000000
    14  H   -0.007057   0.531194  -0.007688   0.000132  -0.000012   0.000000
    15  H   -0.000213  -0.007688   0.517482  -0.000600  -0.000003  -0.000000
    16  H   -0.000113   0.000132  -0.000600   0.689706  -0.000097   0.000023
    17  H    0.003003  -0.000012  -0.000003  -0.000097   0.526268   0.000073
    18  H    0.000000   0.000000  -0.000000   0.000023   0.000073   0.488845
    19  Cl  -0.000511  -0.000097   0.000561  -0.253399   0.000151  -0.020894
    20  Cl   0.000178  -0.000225  -0.006234  -0.038047   0.000130   0.000012
    21  Cl   0.000089  -0.000001   0.000000   0.000417  -0.000607  -0.007092
    22  Cl   0.000320   0.000004   0.000002  -0.000049  -0.019248  -0.000375
              19         20         21         22
     1  C    0.726076  -0.446961  -0.017830  -0.179330
     2  C    0.343244  -0.084558  -0.016516  -0.136865
     3  C    0.071024   0.273649  -0.005627   0.011723
     4  C   -0.022187  -0.348159   0.000088  -0.008979
     5  C   -0.920396  -0.709203   0.000596  -0.002546
     6  C   -0.918584   0.844147  -0.029704  -0.033121
     7  C    0.224248  -0.232579   0.095214  -0.921030
     8  C    0.542042  -0.124620  -0.087566   0.470549
     9  C    0.197716  -0.006794   0.098431  -0.286414
    10  C   -0.667894  -0.003509  -0.515794  -0.594873
    11  C   -0.523169   0.001126   0.115010   0.325918
    12  C   -0.560876   0.060406  -0.393240   0.531911
    13  H   -0.000511   0.000178   0.000089   0.000320
    14  H   -0.000097  -0.000225  -0.000001   0.000004
    15  H    0.000561  -0.006234   0.000000   0.000002
    16  H   -0.253399  -0.038047   0.000417  -0.000049
    17  H    0.000151   0.000130  -0.000607  -0.019248
    18  H   -0.020894   0.000012  -0.007092  -0.000375
    19  Cl  18.182933  -0.050929  -0.027130   0.003965
    20  Cl  -0.050929  17.480914  -0.000045  -0.000096
    21  Cl  -0.027130  -0.000045  17.423967  -0.168037
    22  Cl   0.003965  -0.000096  -0.168037  17.473470
 Mulliken charges:
               1
     1  C   -0.172075
     2  C   -0.330477
     3  C   -0.338234
     4  C   -0.351820
     5  C    0.984928
     6  C   -1.288638
     7  C   -0.299535
     8  C   -0.464000
     9  C    0.042512
    10  C   -0.123184
    11  C   -0.475401
    12  C   -0.184413
    13  H    0.119597
    14  H    0.134273
    15  H    0.144356
    16  H    0.147125
    17  H    0.150760
    18  H    0.170251
    19  Cl   0.674106
    20  Cl   0.391397
    21  Cl   0.535375
    22  Cl   0.533099
 Sum of Mulliken charges =  -0.00000
 Mulliken charges with hydrogens summed into heavy atoms:
               1
     1  C   -0.172075
     2  C   -0.210880
     3  C   -0.203962
     4  C   -0.207464
     5  C    0.984928
     6  C   -1.141514
     7  C   -0.299535
     8  C   -0.313240
     9  C    0.042512
    10  C   -0.123184
    11  C   -0.305150
    12  C   -0.184413
    19  Cl   0.674106
    20  Cl   0.391397
    21  Cl   0.535375
    22  Cl   0.533099
 Electronic spatial extent (au):  <R**2>=           6792.4242
 Charge=             -0.0000 electrons
 Dipole moment (field-independent basis, Debye):
    X=             -0.1028    Y=              1.2712    Z=              0.0000  Tot=              1.2753
 Quadrupole moment (field-independent basis, Debye-Ang):
   XX=           -129.8055   YY=           -111.1525   ZZ=           -124.2134
   XY=             -6.6329   XZ=             -0.0000   YZ=              0.0000
 Traceless Quadrupole moment (field-independent basis, Debye-Ang):
   XX=             -8.0817   YY=             10.5712   ZZ=             -2.4896
   XY=             -6.6329   XZ=             -0.0000   YZ=              0.0000
 Octapole moment (field-independent basis, Debye-Ang**2):
  XXX=              9.2631  YYY=              5.2712  ZZZ=             -0.0000  XYY=             -8.5321
  XXY=             13.2321  XXZ=              0.0001  XZZ=              9.3020  YZZ=             -8.2219
  YYZ=              0.0001  XYZ=             -0.0001
 Hexadecapole moment (field-independent basis, Debye-Ang**3):
 XXXX=          -7183.3813 YYYY=          -1678.9161 ZZZZ=           -145.2454 XXXY=            -65.8186
 XXXZ=             -0.0002 YYYX=             -3.0344 YYYZ=              0.0001 ZZZX=              0.0001
 ZZZY=             -0.0001 XXYY=          -1387.3068 XXZZ=          -1250.7744 YYZZ=           -340.1646
 XXYZ=              0.0002 YYXZ=             -0.0001 ZZXY=             25.0866
 N-N= 1.425111212905D+03 E-N=-8.294290353218D+03  KE= 2.295653591949D+03
 Calling FoFJK, ICntrl=      2127 FMM=F ISym2X=0 I1Cent= 0 IOpClX= 0 NMat=1 NMatS=1 NMatT=0.
 ***** Axes restored to original set *****
 -------------------------------------------------------------------
 Center     Atomic                   Forces (Hartrees/Bohr)
 Number     Number              X              Y              Z
 -------------------------------------------------------------------
      1        6          -0.009771671   -0.023209700   -0.001139769
      2        6          -0.000433594    0.017711419    0.003469339
      3        6          -0.020436413   -0.005323554    0.005733174
      4        6          -0.006378683   -0.004183460    0.001315583
      5        6           0.013972958   -0.017724263   -0.007932183
      6        6           0.040222497    0.033129297   -0.007029712
      7        6           0.017904519    0.036630250    0.000980888
      8        6          -0.022542225   -0.009396639    0.005661989
      9        6           0.005057454    0.002634930   -0.001171411
     10        6          -0.001736749    0.001737689    0.000898617
     11        6           0.009227602    0.003496079   -0.002383357
     12        6           0.004726484   -0.016757281   -0.004704448
     13        1           0.006475897   -0.003970507   -0.002879274
     14        1           0.008853776    0.000944706   -0.002739484
     15        1           0.004798041    0.008332871   -0.000015730
     16        1           0.040296372    0.027386105   -0.008132845
     17        1           0.005015423   -0.003214981   -0.002256286
     18        1          -0.007978855   -0.000921852    0.002455484
     19       17          -0.088385198   -0.061430601    0.017582257
     20       17           0.000739488   -0.002250026   -0.000666169
     21       17          -0.000211521    0.008658023    0.001695684
     22       17           0.000584397    0.007721495    0.001257653
 -------------------------------------------------------------------
 Cartesian Forces:  Max     0.088385198 RMS     0.018436935

 GradGradGradGradGradGradGradGradGradGradGradGradGradGradGradGradGradGrad
 Berny optimization.
 FormGI is forming the generalized inverse of G from B-inverse, IUseBI=4.
 Internal  Forces:  Max     0.279242145 RMS     0.050727687
 Search for a local minimum.
 Step number   1 out of a maximum of  121
 All quantities printed in internal units (Hartrees-Bohrs-Radians)
 Mixed Optimization -- RFO/linear search
 Second derivative matrix not updated -- first step.
 ITU=  0
     Eigenvalues ---    0.00237   0.01506   0.01506   0.02070   0.02070
     Eigenvalues ---    0.02070   0.02070   0.02070   0.02070   0.02070
     Eigenvalues ---    0.02070   0.02070   0.02070   0.02070   0.02070
     Eigenvalues ---    0.02070   0.02070   0.02070   0.02070   0.16000
     Eigenvalues ---    0.16000   0.16000   0.16000   0.16000   0.16000
     Eigenvalues ---    0.22000   0.23000   0.23478   0.23493   0.23980
     Eigenvalues ---    0.25000   0.25000   0.25000   0.25000   0.25000
     Eigenvalues ---    0.25000   0.25000   0.28519   0.29539   0.29539
     Eigenvalues ---    0.29539   0.29539   0.37230   0.37230   0.37230
     Eigenvalues ---    0.37230   0.37230   0.37230   0.41364   0.41465
     Eigenvalues ---    0.41554   0.41797   0.45389   0.45389   0.45389
     Eigenvalues ---    0.45389   0.45389   0.45389   0.45389   0.45389
 RFO step:  Lambda=-4.19741793D-01 EMin= 2.36824243D-03
 Linear search not attempted -- first point.
 Maximum step size (   0.300) exceeded in Quadratic search.
    -- Step size scaled by   0.381
 Iteration  1 RMS(Cart)=  0.20047884 RMS(Int)=  0.00994867
 Iteration  2 RMS(Cart)=  0.03553345 RMS(Int)=  0.00028754
 Iteration  3 RMS(Cart)=  0.00054008 RMS(Int)=  0.00004487
 Iteration  4 RMS(Cart)=  0.00000017 RMS(Int)=  0.00004487
 Variable       Old X    -DE/DX   Delta X   Delta X   Delta X     New X
                                 (Linear)    (Quad)   (Total)
    R1        2.64826   0.01750   0.00000   0.00785   0.00789   2.65615
    R2        2.64826   0.01533   0.00000   0.00701   0.00705   2.65531
    R3        2.91018   0.06628   0.00000   0.03585   0.03585   2.94602
    R4        2.64826  -0.01227   0.00000  -0.00546  -0.00546   2.64280
    R5        2.02201   0.00711   0.00000   0.00342   0.00342   2.02543
    R6        2.64826  -0.02630   0.00000  -0.01180  -0.01184   2.63643
    R7        2.02201   0.00929   0.00000   0.00447   0.00447   2.02648
    R8        2.64826  -0.02549   0.00000  -0.01134  -0.01138   2.63689
    R9        2.02201   0.00962   0.00000   0.00463   0.00463   2.02664
   R10        2.64826  -0.00437   0.00000  -0.00180  -0.00180   2.64646
   R11        3.32592  -0.00243   0.00000  -0.00129  -0.00129   3.32462
   R12        2.02201  -0.04141   0.00000  -0.01993  -0.01993   2.00207
   R13        2.64826   0.01702   0.00000   0.00807   0.00817   2.65644
   R14        2.64826   0.12020   0.00000   0.05365   0.05373   2.70199
   R15        2.64826  -0.02410   0.00000  -0.01107  -0.01104   2.63722
   R16        2.02201   0.00540   0.00000   0.00260   0.00260   2.02461
   R17        2.64826  -0.03380   0.00000  -0.01594  -0.01602   2.63224
   R18        3.32592  -0.00662   0.00000  -0.00353  -0.00353   3.32239
   R19        2.64826  -0.03190   0.00000  -0.01457  -0.01467   2.63360
   R20        3.32592  -0.00736   0.00000  -0.00392  -0.00392   3.32200
   R21        2.64826   0.00149   0.00000   0.00120   0.00117   2.64943
   R22        2.02201   0.00837   0.00000   0.00403   0.00403   2.02603
   R23        3.32592  -0.00696   0.00000  -0.00371  -0.00371   3.32221
    A1        2.09440  -0.05991   0.00000  -0.03356  -0.03348   2.06091
    A2        2.09440  -0.12956   0.00000  -0.07403  -0.07407   2.02033
    A3        2.09440   0.18946   0.00000   0.10759   0.10755   2.20194
    A4        2.09440   0.03663   0.00000   0.02181   0.02185   2.11624
    A5        2.09440  -0.01434   0.00000  -0.00829  -0.00831   2.08609
    A6        2.09440  -0.02230   0.00000  -0.01352  -0.01354   2.08085
    A7        2.09440   0.00356   0.00000   0.00135   0.00131   2.09571
    A8        2.09440  -0.00101   0.00000  -0.00017  -0.00015   2.09424
    A9        2.09440  -0.00255   0.00000  -0.00118  -0.00116   2.09323
   A10        2.09440  -0.01733   0.00000  -0.01125  -0.01133   2.08307
   A11        2.09440   0.00874   0.00000   0.00567   0.00571   2.10011
   A12        2.09440   0.00859   0.00000   0.00558   0.00562   2.10001
   A13        2.09440   0.02015   0.00000   0.01116   0.01112   2.10552
   A14        2.09440  -0.00940   0.00000  -0.00520  -0.00518   2.08922
   A15        2.09440  -0.01075   0.00000  -0.00597  -0.00595   2.08845
   A16        2.09440   0.01689   0.00000   0.01049   0.01053   2.10492
   A17        2.09440   0.01878   0.00000   0.01266   0.01264   2.10704
   A18        2.09440  -0.03567   0.00000  -0.02315  -0.02317   2.07123
   A19        2.09440  -0.20172   0.00000  -0.11585  -0.11594   1.97846
   A20        2.09440   0.27924   0.00000   0.15796   0.15787   2.25226
   A21        2.09440  -0.07752   0.00000  -0.04211  -0.04193   2.05247
   A22        2.09440   0.05887   0.00000   0.03477   0.03490   2.12930
   A23        2.09440  -0.02601   0.00000  -0.01514  -0.01520   2.07919
   A24        2.09440  -0.03285   0.00000  -0.01964  -0.01970   2.07469
   A25        2.09440   0.00082   0.00000  -0.00227  -0.00232   2.09207
   A26        2.09440  -0.00740   0.00000  -0.00284  -0.00282   2.09158
   A27        2.09440   0.00658   0.00000   0.00512   0.00514   2.09954
   A28        2.09440  -0.00779   0.00000  -0.00731  -0.00748   2.08691
   A29        2.09440   0.01200   0.00000   0.00827   0.00836   2.10275
   A30        2.09440  -0.00421   0.00000  -0.00096  -0.00087   2.09352
   A31        2.09440   0.03846   0.00000   0.02234   0.02221   2.11660
   A32        2.09440  -0.01999   0.00000  -0.01167  -0.01161   2.08279
   A33        2.09440  -0.01847   0.00000  -0.01067  -0.01060   2.08379
   A34        2.09440  -0.01284   0.00000  -0.00542  -0.00538   2.08902
   A35        2.09440   0.18742   0.00000   0.10575   0.10573   2.20012
   A36        2.09440  -0.17458   0.00000  -0.10033  -0.10035   1.99404
    D1        0.00000   0.00000   0.00000   0.00000   0.00000   0.00000
    D2        3.14159   0.00000   0.00000   0.00000   0.00000   3.14159
    D3       -3.14159   0.00000   0.00000  -0.00000  -0.00000  -3.14159
    D4       -0.00000  -0.00000   0.00000  -0.00000  -0.00000  -0.00000
    D5       -0.00000  -0.00000   0.00000  -0.00000  -0.00000  -0.00000
    D6        3.14159  -0.00000   0.00000  -0.00000  -0.00000   3.14159
    D7        3.14159   0.00000   0.00000   0.00000   0.00000   3.14159
    D8        0.00000  -0.00000   0.00000  -0.00000  -0.00000   0.00000
    D9       -0.00000  -0.00000   0.00000  -0.00000  -0.00000  -0.00000
   D10        3.14159  -0.00000   0.00000  -0.00000  -0.00000   3.14159
   D11        3.14159  -0.00000   0.00000  -0.00000  -0.00000   3.14159
   D12       -0.00000  -0.00000   0.00000  -0.00000  -0.00000  -0.00000
   D13        0.00000  -0.00000   0.00000  -0.00000  -0.00000   0.00000
   D14        3.14159  -0.00000   0.00000  -0.00000  -0.00000   3.14159
   D15       -3.14159  -0.00000   0.00000  -0.00000  -0.00000  -3.14159
   D16        0.00000  -0.00000   0.00000  -0.00000  -0.00000   0.00000
   D17       -0.00000   0.00000   0.00000   0.00000   0.00000  -0.00000
   D18        3.14159   0.00000   0.00000   0.00000   0.00000   3.14159
   D19        3.14159  -0.00000   0.00000  -0.00000  -0.00000   3.14159
   D20        0.00000  -0.00000   0.00000  -0.00000  -0.00000   0.00000
   D21        0.00000   0.00000   0.00000   0.00000   0.00000   0.00000
   D22       -3.14159   0.00000   0.00000   0.00000   0.00000  -3.14159
   D23       -3.14159  -0.00000   0.00000  -0.00000  -0.00000  -3.14159
   D24        0.00000   0.00000   0.00000   0.00000   0.00000   0.00000
   D25       -0.00000   0.00000   0.00000   0.00000   0.00000  -0.00000
   D26        3.14159   0.00000   0.00000   0.00000   0.00000   3.14159
   D27        3.14159   0.00000   0.00000   0.00000   0.00000   3.14159
   D28       -0.00000   0.00000   0.00000   0.00000   0.00000  -0.00000
   D29        3.14159   0.00000   0.00000   0.00000   0.00000   3.14159
   D30        0.00000   0.00000   0.00000   0.00000   0.00000   0.00000
   D31        0.00000   0.00000   0.00000   0.00000   0.00000   0.00000
   D32       -3.14159  -0.00000   0.00000  -0.00000  -0.00000  -3.14159
   D33       -3.14159   0.00000   0.00000   0.00000   0.00000  -3.14159
   D34        0.00000  -0.00000   0.00000  -0.00000  -0.00000   0.00000
   D35       -0.00000  -0.00000   0.00000  -0.00000  -0.00000  -0.00000
   D36        3.14159  -0.00000   0.00000  -0.00000  -0.00000   3.14159
   D37       -0.00000   0.00000   0.00000  -0.00000  -0.00000  -0.00000
   D38        3.14159  -0.00000   0.00000  -0.00000  -0.00000   3.14159
   D39        3.14159   0.00000   0.00000   0.00000   0.00000   3.14159
   D40       -0.00000   0.00000   0.00000   0.00000   0.00000  -0.00000
   D41       -0.00000  -0.00000   0.00000  -0.00000  -0.00000  -0.00000
   D42       -3.14159  -0.00000   0.00000  -0.00000  -0.00000  -3.14159
   D43        3.14159   0.00000   0.00000   0.00000   0.00000   3.14159
   D44        0.00000   0.00000   0.00000  -0.00000  -0.00000   0.00000
   D45        0.00000   0.00000   0.00000   0.00000   0.00000   0.00000
   D46       -3.14159   0.00000   0.00000   0.00000   0.00000  -3.14159
   D47        3.14159   0.00000   0.00000   0.00000   0.00000   3.14159
   D48        0.00000   0.00000   0.00000   0.00000   0.00000   0.00000
   D49        0.00000   0.00000   0.00000   0.00000   0.00000   0.00000
   D50       -3.14159   0.00000   0.00000   0.00000   0.00000  -3.14159
   D51        3.14159   0.00000   0.00000   0.00000   0.00000   3.14159
   D52       -0.00000   0.00000   0.00000   0.00000   0.00000  -0.00000
         Item               Value     Threshold  Converged?
 Maximum Force            0.279242     0.000450     NO 
 RMS     Force            0.050728     0.000300     NO 
 Maximum Displacement     0.984889     0.001800     NO 
 RMS     Displacement     0.231280     0.001200     NO 
 Predicted change in Energy=-1.484134D-01
 GradGradGradGradGradGradGradGradGradGradGradGradGradGradGradGradGradGrad

                          Input orientation:                          
 ---------------------------------------------------------------------
 Center     Atomic      Atomic             Coordinates (Angstroms)
 Number     Number       Type             X           Y           Z
 ---------------------------------------------------------------------
      1          6           0        0.262601    0.936900    0.059436
      2          6           0        1.587207    0.826752   -0.397648
      3          6           0        2.426837    1.943162   -0.464596
      4          6           0        1.955590    3.196830   -0.073891
      5          6           0        0.642835    3.322373    0.382178
      6          6           0       -0.199102    2.205311    0.449764
      7          6           0       -0.558881   -0.387893    0.081270
      8          6           0        0.169690   -1.502905   -0.368173
      9          6           0       -0.391219   -2.779597   -0.423152
     10          6           0       -1.711608   -2.974882   -0.024816
     11          6           0       -2.461584   -1.890196    0.425984
     12          6           0       -1.913115   -0.601371    0.487340
     13          1           0        1.963362   -0.129866   -0.701235
     14          1           0        3.434109    1.835996   -0.816573
     15          1           0        2.595974    4.055659   -0.123572
     16          1           0       -1.190093    2.336182    0.800829
     17          1           0        1.186628   -1.370863   -0.678409
     18          1           0       -3.477519   -2.044813    0.731655
     19         17           0       -3.020711    0.627104    1.082967
     20         17           0        0.038960    4.898909    0.877213
     21         17           0       -2.434309   -4.576156   -0.087448
     22         17           0        0.572248   -4.134480   -0.995033
 ---------------------------------------------------------------------
                    Distance matrix (angstroms):
                    1          2          3          4          5
     1  C    0.000000
     2  C    1.405575   0.000000
     3  C    2.443582   1.398511   0.000000
     4  C    2.826884   2.420288   1.395137   0.000000
     5  C    2.437052   2.779944   2.408716   1.395380   0.000000
     6  C    1.405130   2.410276   2.792908   2.428996   1.400447
     7  C    1.558969   2.512054   3.827049   4.381424   3.911616
     8  C    2.478736   2.727183   4.120606   5.036224   4.906139
     9  C    3.804303   4.113462   5.499783   6.430177   6.241142
    10  C    4.382538   5.047139   6.442616   7.179191   6.735315
    11  C    3.943097   4.944986   6.275702   6.755675   6.067142
    12  C    2.698725   3.882652   5.120158   5.450522   4.683984
    13  H    2.146905   1.071810   2.137348   3.385340   3.851692
    14  H    3.410898   2.145954   1.072365   2.142303   3.381941
    15  H    3.899331   3.393902   2.146520   1.072449   2.146681
    16  H    2.148946   3.380550   3.852006   3.376562   2.123079
    17  H    2.593070   2.251400   3.544940   4.671249   4.842212
    18  H    4.830216   5.930654   7.224707   7.592259   6.775407
    19  Cl   3.453075   4.844067   5.814013   5.718862   4.601864
    20  Cl   4.051702   4.539251   4.029745   2.734071   1.759315
    21  Cl   6.139111   6.742420   8.140915   8.926965   8.489766
    22  Cl   5.189093   5.099102   6.376410   7.517330   7.583294
                    6          7          8          9         10
     6  C    0.000000
     7  C    2.643849   0.000000
     8  C    3.815219   1.405726   0.000000
     9  C    5.064405   2.450061   1.395558   0.000000
    10  C    5.417316   2.834175   2.413274   1.392923   0.000000
    11  C    4.678950   2.448678   2.775659   2.408003   1.393639
    12  C    3.288878   1.429830   2.425436   2.808884   2.436486
    13  H    3.384391   2.653413   2.283293   3.555623   4.696495
    14  H    3.865258   4.657872   4.691029   6.007629   7.088712
    15  H    3.400728   5.453460   6.069952   7.465507   8.245819
    16  H    1.059451   2.887348   4.237235   5.320481   5.400099
    17  H    3.997755   2.142462   1.071375   2.130560   3.376364
    18  H    5.375039   3.418601   3.847781   3.376201   2.134413
    19  Cl   3.294414   2.845035   4.101390   4.559411   3.989391
    20  Cl   2.737673   5.379704   6.523135   7.799708   8.116325
    21  Cl   7.160520   4.592085   4.037882   2.741266   1.757924
    22  Cl   6.547929   4.058916   2.734995   1.758132   2.738976
                   11         12         13         14         15
    11  C    0.000000
    12  C    1.402018   0.000000
    13  H    4.893826   4.081923   0.000000
    14  H    7.084324   6.019447   2.457847   0.000000
    15  H    7.825222   6.510992   4.272297   2.471766   0.000000
    16  H    4.429387   3.041423   4.275730   4.924369   4.259744
    17  H    3.846926   3.399925   1.464210   3.918444   5.633937
    18  H    1.072131   2.142563   5.943348   8.076403   8.650693
    19  Cl   2.661024   1.758036   5.347651   6.836254   6.690133
    20  Cl   7.249019   5.849417   5.611007   4.876205   2.872448
    21  Cl   2.734728   4.049808   6.283768   8.722709   9.990660
    22  Cl   4.032399   4.566981   4.249523   6.623344   8.481350
                   16         17         18         19         20
    16  H    0.000000
    17  H    4.645334   0.000000
    18  H    4.942694   4.919020   0.000000
    19  Cl   2.520261   4.979560   2.733356   0.000000
    20  Cl   2.843233   6.561032   7.784734   5.258540   0.000000
    21  Cl   7.079374   4.871788   2.857782   5.365413   9.839944
    22  Cl   6.942653   2.848735   4.873272   6.316655   9.240769
                   21         22
    21  Cl   0.000000
    22  Cl   3.171462   0.000000
 Stoichiometry    C12H6Cl4
 Framework group  C1[X(C12H6Cl4)]
 Deg. of freedom    60
 Full point group                 C1      NOp   1
 Largest Abelian subgroup         C1      NOp   1
 Largest concise Abelian subgroup C1      NOp   1
                         Standard orientation:                         
 ---------------------------------------------------------------------
 Center     Atomic      Atomic             Coordinates (Angstroms)
 Number     Number       Type             X           Y           Z
 ---------------------------------------------------------------------
      1          6           0       -1.328124    0.528376   -0.000000
      2          6           0       -1.490883    1.924495    0.000003
      3          6           0       -2.762436    2.506719    0.000005
      4          6           0       -3.900744    1.700082    0.000005
      5          6           0       -3.755575    0.312274   -0.000000
      6          6           0       -2.482907   -0.272165   -0.000002
      7          6           0        0.144962    0.018077   -0.000002
      8          6           0        1.094006    1.055083   -0.000002
      9          6           0        2.466354    0.801619   -0.000002
     10          6           0        2.929088   -0.512197   -0.000001
     11          6           0        2.014297   -1.563570   -0.000001
     12          6           0        0.632545   -1.326050   -0.000000
     13          1           0       -0.625683    2.557114    0.000005
     14          1           0       -2.863150    3.574344    0.000008
     15          1           0       -4.877791    2.142267    0.000007
     16          1           0       -2.408876   -1.329026   -0.000005
     17          1           0        0.755704    2.071644    0.000001
     18          1           0        2.374628   -2.573336    0.000003
     19         17           0       -0.350639   -2.783459    0.000003
     20         17           0       -5.184735   -0.713734   -0.000004
     21         17           0        4.654266   -0.849918    0.000001
     22         17           0        3.603559    2.142436   -0.000002
 ---------------------------------------------------------------------
 Rotational constants (GHZ):           0.6781082           0.1678985           0.1345774
 Standard basis: 6-311+G(d,p) (5D, 7F)
 There are   436 symmetry adapted cartesian basis functions of A   symmetry.
 There are   420 symmetry adapted basis functions of A   symmetry.
   420 basis functions,   692 primitive gaussians,   436 cartesian basis functions
    73 alpha electrons       73 beta electrons
       nuclear repulsion energy      1403.8893324532 Hartrees.
 NAtoms=   22 NActive=   22 NUniq=   22 SFac= 1.00D+00 NAtFMM=   60 NAOKFM=F Big=F
 Integral buffers will be    131072 words long.
 Raffenetti 2 integral format.
 Two-electron integral symmetry is turned on.
 One-electron integrals computed using PRISM.
 NBasis=   420 RedAO= T EigKep=  1.32D-06  NBF=   420
 NBsUse=   415 1.00D-06 EigRej=  7.00D-07 NBFU=   415
 Initial guess from the checkpoint file:  "/scratch/gour/Gau-23959.chk"
 B after Tr=     0.000000   -0.000000   -0.000000
         Rot=    0.999845   -0.000000   -0.000000   -0.017594 Ang=  -2.02 deg.
 ExpMin= 4.38D-02 ExpMax= 1.06D+05 ExpMxC= 3.62D+03 IAcc=3 IRadAn=         5 AccDes= 0.00D+00
 Harris functional with IExCor=  402 and IRadAn=       5 diagonalized for initial guess.
 HarFok:  IExCor=  402 AccDes= 0.00D+00 IRadAn=         5 IDoV= 1 UseB2=F ITyADJ=14
 ICtDFT=  3500011 ScaDFX=  1.000000  1.000000  1.000000  1.000000
 FoFCou: FMM=F IPFlag=           0 FMFlag=      100000 FMFlg1=           0
         NFxFlg=           0 DoJE=T BraDBF=F KetDBF=T FulRan=T
         wScrn=  0.000000 ICntrl=       500 IOpCl=  0 I1Cent=   200000004 NGrid=           0
         NMat0=    1 NMatS0=      1 NMatT0=    0 NMatD0=    1 NMtDS0=    0 NMtDT0=    0
 Petite list used in FoFCou.
 Requested convergence on RMS density matrix=1.00D-08 within  32 cycles.
 Requested convergence on MAX density matrix=1.00D-06.
 Requested convergence on             energy=1.00D-06.
 No special actions if energy rises.
 SCF Done:  E(RB3LYP) =  -2301.88025254     A.U. after   17 cycles
            NFock= 17  Conv=0.60D-08     -V/T= 2.0028
 QCSCF skips out because SCF is already converged.
 Calling FoFJK, ICntrl=      2127 FMM=F ISym2X=0 I1Cent= 0 IOpClX= 0 NMat=1 NMatS=1 NMatT=0.
 ***** Axes restored to original set *****
 -------------------------------------------------------------------
 Center     Atomic                   Forces (Hartrees/Bohr)
 Number     Number              X              Y              Z
 -------------------------------------------------------------------
      1        6          -0.009649094   -0.020218329   -0.000618313
      2        6           0.004718324    0.020291814    0.002256642
      3        6          -0.017167024   -0.003921303    0.004919410
      4        6          -0.004437796   -0.002002195    0.001085808
      5        6           0.003509251   -0.011518174   -0.003319311
      6        6           0.010245410   -0.000400749   -0.003450618
      7        6           0.006906634    0.026503213    0.002702262
      8        6          -0.023152591   -0.015233246    0.004766889
      9        6           0.006151579    0.001591965   -0.001727760
     10        6          -0.003665113   -0.002527484    0.000732888
     11        6           0.009473315    0.003135959   -0.002531953
     12        6           0.014104857   -0.011371628   -0.006782714
     13        1           0.009822678    0.007782951   -0.001774459
     14        1           0.007204355   -0.000522694   -0.002471664
     15        1           0.003743025    0.006317834   -0.000046600
     16        1          -0.012837921    0.001867915    0.004580287
     17        1          -0.003711041   -0.011144298   -0.000870529
     18        1          -0.006170671   -0.000959206    0.001852745
     19       17           0.005254722    0.001764089   -0.001399921
     20       17           0.000422899   -0.002808160   -0.000666683
     21       17          -0.000989537    0.007177060    0.001673871
     22       17           0.000223737    0.006194666    0.001089724
 -------------------------------------------------------------------
 Cartesian Forces:  Max     0.026503213 RMS     0.008206382

 GradGradGradGradGradGradGradGradGradGradGradGradGradGradGradGradGradGrad
 Berny optimization.
 Using GEDIIS/GDIIS optimizer.
 FormGI is forming the generalized inverse of G from B-inverse, IUseBI=4.
 Internal  Forces:  Max     0.060712529 RMS     0.011346204
 Search for a local minimum.
 Step number   2 out of a maximum of  121
 All quantities printed in internal units (Hartrees-Bohrs-Radians)
 Mixed Optimization -- RFO/linear search
 Update second derivatives using D2CorX and points    1    2
 DE= -4.00D-02 DEPred=-1.48D-01 R= 2.69D-01
 Trust test= 2.69D-01 RLast= 3.00D-01 DXMaxT set to 3.00D-01
 ITU=  0  0
 Use linear search instead of GDIIS.
     Eigenvalues ---    0.00237   0.01478   0.01485   0.02070   0.02070
     Eigenvalues ---    0.02070   0.02070   0.02070   0.02070   0.02070
     Eigenvalues ---    0.02070   0.02070   0.02070   0.02070   0.02070
     Eigenvalues ---    0.02070   0.02070   0.02070   0.02070   0.15968
     Eigenvalues ---    0.16000   0.16000   0.16000   0.16000   0.16035
     Eigenvalues ---    0.21995   0.23020   0.23406   0.23493   0.23916
     Eigenvalues ---    0.24772   0.25000   0.25000   0.25000   0.25000
     Eigenvalues ---    0.25000   0.28454   0.29529   0.29539   0.29539
     Eigenvalues ---    0.29539   0.37080   0.37201   0.37230   0.37230
     Eigenvalues ---    0.37230   0.37230   0.40636   0.41313   0.41368
     Eigenvalues ---    0.41609   0.45038   0.45324   0.45389   0.45389
     Eigenvalues ---    0.45389   0.45389   0.45389   0.45389   2.09548
 RFO step:  Lambda=-1.43667867D-02 EMin= 2.36824243D-03
 Quartic linear search produced a step of -0.31553.
 Iteration  1 RMS(Cart)=  0.15265460 RMS(Int)=  0.00489432
 Iteration  2 RMS(Cart)=  0.00867440 RMS(Int)=  0.00005721
 Iteration  3 RMS(Cart)=  0.00002753 RMS(Int)=  0.00005665
 Iteration  4 RMS(Cart)=  0.00000000 RMS(Int)=  0.00005665
 Variable       Old X    -DE/DX   Delta X   Delta X   Delta X     New X
                                 (Linear)    (Quad)   (Total)
    R1        2.65615   0.01035  -0.00249   0.02248   0.02002   2.67617
    R2        2.65531  -0.00247  -0.00222   0.00262   0.00046   2.65578
    R3        2.94602  -0.00670  -0.01131   0.01307   0.00176   2.94779
    R4        2.64280  -0.00680   0.00172  -0.01413  -0.01245   2.63035
    R5        2.02543  -0.00300  -0.00108  -0.00247  -0.00355   2.02188
    R6        2.63643  -0.00603   0.00373  -0.01910  -0.01543   2.62100
    R7        2.02648   0.00763  -0.00141   0.01719   0.01578   2.04225
    R8        2.63689  -0.01025   0.00359  -0.02529  -0.02173   2.61516
    R9        2.02664   0.00730  -0.00146   0.01673   0.01527   2.04190
   R10        2.64646  -0.00876   0.00057  -0.01473  -0.01413   2.63233
   R11        3.32462  -0.00285   0.00041  -0.00732  -0.00691   3.31771
   R12        2.00207   0.01376   0.00629   0.00784   0.01413   2.01620
   R13        2.65644   0.00658  -0.00258   0.01656   0.01406   2.67050
   R14        2.70199  -0.01784  -0.01695   0.01889   0.00206   2.70405
   R15        2.63722  -0.00686   0.00348  -0.01870  -0.01526   2.62196
   R16        2.02461  -0.00464  -0.00082  -0.00606  -0.00688   2.01772
   R17        2.63224  -0.00066   0.00505  -0.01393  -0.00900   2.62325
   R18        3.32239  -0.00501   0.00111  -0.01386  -0.01275   3.30964
   R19        2.63360  -0.01037   0.00463  -0.02762  -0.02308   2.61052
   R20        3.32200  -0.00619   0.00124  -0.01679  -0.01555   3.30645
   R21        2.64943  -0.00865  -0.00037  -0.01233  -0.01266   2.63677
   R22        2.02603   0.00651  -0.00127   0.01485   0.01358   2.03961
   R23        3.32221  -0.00255   0.00117  -0.00859  -0.00742   3.31479
    A1        2.06091  -0.01204   0.01056  -0.05535  -0.04470   2.01622
    A2        2.02033   0.05667   0.02337   0.08874   0.11206   2.13239
    A3        2.20194  -0.04463  -0.03393  -0.03339  -0.06737   2.13457
    A4        2.11624   0.00175  -0.00689   0.02342   0.01651   2.13275
    A5        2.08609   0.01158   0.00262   0.03890   0.04152   2.12761
    A6        2.08085  -0.01333   0.00427  -0.06231  -0.05804   2.02282
    A7        2.09571   0.00500  -0.00041   0.01558   0.01506   2.11077
    A8        2.09424  -0.00225   0.00005  -0.00647  -0.00637   2.08787
    A9        2.09323  -0.00275   0.00037  -0.00911  -0.00869   2.08455
   A10        2.08307  -0.00619   0.00357  -0.02880  -0.02532   2.05775
   A11        2.10011   0.00394  -0.00180   0.01773   0.01597   2.11608
   A12        2.10001   0.00226  -0.00177   0.01107   0.00935   2.10936
   A13        2.10552   0.00597  -0.00351   0.02176   0.01826   2.12378
   A14        2.08922  -0.00194   0.00163  -0.00789  -0.00626   2.08295
   A15        2.08845  -0.00402   0.00188  -0.01387  -0.01200   2.07645
   A16        2.10492   0.00551  -0.00332   0.02340   0.02018   2.12510
   A17        2.10704  -0.00258  -0.00399   0.00110  -0.00293   2.10410
   A18        2.07123  -0.00293   0.00731  -0.02450  -0.01725   2.05398
   A19        1.97846   0.06071   0.03658   0.06821   0.10468   2.08313
   A20        2.25226  -0.04393  -0.04981   0.00844  -0.04148   2.21078
   A21        2.05247  -0.01678   0.01323  -0.07665  -0.06320   1.98927
   A22        2.12930   0.00665  -0.01101   0.04690   0.03593   2.16523
   A23        2.07919   0.00763   0.00480   0.02104   0.02581   2.10501
   A24        2.07469  -0.01428   0.00622  -0.06794  -0.06174   2.01295
   A25        2.09207   0.00047   0.00073   0.00165   0.00221   2.09428
   A26        2.09158  -0.00657   0.00089  -0.02028  -0.01931   2.07227
   A27        2.09954   0.00610  -0.00162   0.01863   0.01710   2.11664
   A28        2.08691  -0.00553   0.00236  -0.01921  -0.01707   2.06984
   A29        2.10275   0.00961  -0.00264   0.03085   0.02833   2.13108
   A30        2.09352  -0.00408   0.00027  -0.01164  -0.01126   2.08227
   A31        2.11660  -0.00099  -0.00701   0.01203   0.00497   2.12158
   A32        2.08279   0.00047   0.00366  -0.00644  -0.00275   2.08004
   A33        2.08379   0.00052   0.00335  -0.00559  -0.00222   2.08157
   A34        2.08902   0.01618   0.00170   0.03529   0.03716   2.12617
   A35        2.20012  -0.01659  -0.03336   0.03973   0.00629   2.20641
   A36        1.99404   0.00041   0.03166  -0.07502  -0.04344   1.95060
    D1        0.00000  -0.00000  -0.00000  -0.00000  -0.00000   0.00000
    D2        3.14159  -0.00000  -0.00000  -0.00000  -0.00000   3.14159
    D3       -3.14159  -0.00000   0.00000  -0.00000  -0.00000  -3.14159
    D4       -0.00000  -0.00000   0.00000   0.00000   0.00000  -0.00000
    D5       -0.00000   0.00000   0.00000   0.00000   0.00000  -0.00000
    D6        3.14159   0.00000   0.00000   0.00000   0.00000   3.14159
    D7        3.14159  -0.00000  -0.00000   0.00000   0.00000   3.14159
    D8        0.00000  -0.00000   0.00000  -0.00000  -0.00000  -0.00000
    D9       -0.00000  -0.00000   0.00000  -0.00000  -0.00000  -0.00000
   D10        3.14159  -0.00000   0.00000  -0.00000  -0.00000   3.14159
   D11        3.14159  -0.00000   0.00000  -0.00000  -0.00000   3.14159
   D12       -0.00000  -0.00000   0.00000   0.00000   0.00000  -0.00000
   D13        0.00000  -0.00000   0.00000  -0.00000  -0.00000   0.00000
   D14        3.14159   0.00000   0.00000   0.00000   0.00000   3.14159
   D15       -3.14159  -0.00000   0.00000  -0.00000  -0.00000  -3.14159
   D16        0.00000  -0.00000   0.00000  -0.00000  -0.00000   0.00000
   D17       -0.00000   0.00000  -0.00000   0.00000   0.00000  -0.00000
   D18        3.14159   0.00000  -0.00000   0.00000   0.00000   3.14159
   D19        3.14159   0.00000   0.00000   0.00000   0.00000   3.14159
   D20        0.00000  -0.00000   0.00000  -0.00000  -0.00000   0.00000
   D21        0.00000  -0.00000  -0.00000  -0.00000  -0.00000   0.00000
   D22       -3.14159  -0.00000  -0.00000  -0.00000  -0.00000  -3.14159
   D23       -3.14159  -0.00000   0.00000  -0.00000  -0.00000  -3.14159
   D24        0.00000  -0.00000  -0.00000  -0.00000  -0.00000   0.00000
   D25       -0.00000   0.00000  -0.00000   0.00000   0.00000  -0.00000
   D26        3.14159   0.00000  -0.00000   0.00000   0.00000   3.14159
   D27        3.14159   0.00000  -0.00000   0.00000   0.00000   3.14159
   D28       -0.00000   0.00000  -0.00000   0.00000   0.00000  -0.00000
   D29        3.14159  -0.00000  -0.00000   0.00000   0.00000  -3.14159
   D30        0.00000  -0.00000  -0.00000  -0.00000  -0.00000   0.00000
   D31        0.00000  -0.00000  -0.00000  -0.00000  -0.00000   0.00000
   D32       -3.14159  -0.00000   0.00000  -0.00000  -0.00000  -3.14159
   D33       -3.14159  -0.00000  -0.00000  -0.00000  -0.00000   3.14159
   D34        0.00000  -0.00000   0.00000  -0.00000  -0.00000  -0.00000
   D35       -0.00000   0.00000   0.00000   0.00000   0.00000  -0.00000
   D36        3.14159   0.00000   0.00000   0.00000   0.00000   3.14159
   D37       -0.00000  -0.00000   0.00000   0.00000   0.00000  -0.00000
   D38        3.14159  -0.00000   0.00000  -0.00000  -0.00000   3.14159
   D39        3.14159   0.00000  -0.00000   0.00000   0.00000   3.14159
   D40       -0.00000   0.00000  -0.00000   0.00000   0.00000  -0.00000
   D41       -0.00000   0.00000   0.00000   0.00000   0.00000   0.00000
   D42       -3.14159  -0.00000   0.00000  -0.00000  -0.00000  -3.14159
   D43        3.14159   0.00000  -0.00000   0.00000   0.00000  -3.14159
   D44        0.00000  -0.00000   0.00000  -0.00000  -0.00000   0.00000
   D45        0.00000   0.00000  -0.00000  -0.00000  -0.00000  -0.00000
   D46       -3.14159  -0.00000  -0.00000  -0.00000  -0.00000  -3.14159
   D47        3.14159   0.00000  -0.00000   0.00000   0.00000   3.14159
   D48        0.00000  -0.00000  -0.00000  -0.00000  -0.00000   0.00000
   D49        0.00000  -0.00000  -0.00000  -0.00000  -0.00000   0.00000
   D50       -3.14159  -0.00000  -0.00000  -0.00000  -0.00000  -3.14159
   D51        3.14159   0.00000  -0.00000   0.00000   0.00000   3.14159
   D52       -0.00000   0.00000  -0.00000   0.00000   0.00000  -0.00000
         Item               Value     Threshold  Converged?
 Maximum Force            0.060713     0.000450     NO 
 RMS     Force            0.011346     0.000300     NO 
 Maximum Displacement     0.547004     0.001800     NO 
 RMS     Displacement     0.155118     0.001200     NO 
 Predicted change in Energy=-9.567934D-03
 GradGradGradGradGradGradGradGradGradGradGradGradGradGradGradGradGradGrad

                          Input orientation:                          
 ---------------------------------------------------------------------
 Center     Atomic      Atomic             Coordinates (Angstroms)
 Number     Number       Type             X           Y           Z
 ---------------------------------------------------------------------
      1          6           0        0.378893    0.875671    0.009624
      2          6           0        1.725594    0.914632   -0.426735
      3          6           0        2.464324    2.094145   -0.448590
      4          6           0        1.903453    3.294493   -0.038373
      5          6           0        0.588380    3.281060    0.392359
      6          6           0       -0.160897    2.107069    0.418727
      7          6           0       -0.448544   -0.446468    0.033919
      8          6           0        0.156764   -1.650445   -0.391623
      9          6           0       -0.486881   -2.879460   -0.410391
     10          6           0       -1.807404   -2.977674    0.006220
     11          6           0       -2.452639   -1.833437    0.433697
     12          6           0       -1.808275   -0.595981    0.453813
     13          1           0        2.237521    0.036342   -0.760340
     14          1           0        3.489616    2.076126   -0.789760
     15          1           0        2.472382    4.212993   -0.053307
[...]

 **********************************************************************

 Orbital symmetries:
       Occupied  (A) (A) (A) (A) (A) (A) (A) (A) (A) (A) (A) (A)
                 (A) (A) (A) (A) (A) (A) (A) (A) (A) (A) (A) (A)
                 (A) (A) (A) (A) (A) (A) (A) (A) (A) (A) (A) (A)
                 (A) (A) (A) (A) (A) (A) (A) (A) (A) (A) (A) (A)
                 (A) (A) (A) (A) (A) (A) (A) (A) (A) (A) (A) (A)
                 (A) (A) (A) (A) (A) (A) (A) (A) (A) (A) (A) (A)
                 (A)
       Virtual   (A) (A) (A) (A) (A) (A) (A) (A) (A) (A) (A) (A)
                 (A) (A) (A) (A) (A) (A) (A) (A) (A) (A) (A) (A)
                 (A) (A) (A) (A) (A) (A) (A) (A) (A) (A) (A) (A)
                 (A) (A) (A) (A) (A) (A) (A) (A) (A) (A) (A) (A)
                 (A) (A) (A) (A) (A) (A) (A) (A) (A) (A) (A) (A)
                 (A) (A) (A) (A) (A) (A) (A) (A) (A) (A) (A) (A)
                 (A) (A) (A) (A) (A) (A) (A) (A) (A) (A) (A) (A)
                 (A) (A) (A) (A) (A) (A) (A) (A) (A) (A) (A) (A)
                 (A) (A) (A) (A) (A) (A) (A) (A) (A) (A) (A) (A)
                 (A) (A) (A) (A) (A) (A) (A) (A) (A) (A) (A) (A)
                 (A) (A) (A) (A) (A) (A) (A) (A) (A) (A) (A) (A)
                 (A) (A) (A) (A) (A) (A) (A) (A) (A) (A) (A) (A)
                 (A) (A) (A) (A) (A) (A) (A) (A) (A) (A) (A) (A)
                 (A) (A) (A) (A) (A) (A) (A) (A) (A) (A) (A) (A)
                 (A) (A) (A) (A) (A) (A) (A) (A) (A) (A) (A) (A)
                 (A) (A) (A) (A) (A) (A) (A) (A) (A) (A) (A) (A)
                 (A) (A) (A) (A) (A) (A) (A) (A) (A) (A) (A) (A)
                 (A) (A) (A) (A) (A) (A) (A) (A) (A) (A) (A) (A)
                 (A) (A) (A) (A) (A) (A) (A) (A) (A) (A) (A) (A)
                 (A) (A) (A) (A) (A) (A) (A) (A) (A) (A) (A) (A)
                 (A) (A) (A) (A) (A) (A) (A) (A) (A) (A) (A) (A)
                 (A) (A) (A) (A) (A) (A) (A) (A) (A) (A) (A) (A)
                 (A) (A) (A) (A) (A) (A) (A) (A) (A) (A) (A) (A)
                 (A) (A) (A) (A) (A) (A) (A) (A) (A) (A) (A) (A)
                 (A) (A) (A) (A) (A) (A) (A) (A) (A) (A) (A) (A)
                 (A) (A) (A) (A) (A) (A) (A) (A) (A) (A) (A) (A)
                 (A) (A) (A) (A) (A) (A) (A) (A) (A) (A) (A) (A)
                 (A) (A) (A) (A) (A) (A) (A) (A) (A) (A) (A) (A)
                 (A) (A) (A) (A) (A) (A) (A) (A) (A)
 The electronic state is 1-A.
 Alpha  occ. eigenvalues -- -101.57542-101.57431-101.57184-101.56267 -10.27128
 Alpha  occ. eigenvalues --  -10.26849 -10.26749 -10.25356 -10.22897 -10.21939
 Alpha  occ. eigenvalues --  -10.21802 -10.21791 -10.20411 -10.20297 -10.20230
 Alpha  occ. eigenvalues --  -10.20023  -9.48997  -9.48886  -9.48656  -9.47725
 Alpha  occ. eigenvalues --   -7.25484  -7.25371  -7.25128  -7.24476  -7.24418
 Alpha  occ. eigenvalues --   -7.24364  -7.24310  -7.24185  -7.24138  -7.24087
 Alpha  occ. eigenvalues --   -7.23208  -7.23173  -0.94484  -0.91289  -0.90160
 Alpha  occ. eigenvalues --   -0.88004  -0.86052  -0.84107  -0.80073  -0.76761
 Alpha  occ. eigenvalues --   -0.75440  -0.73866  -0.66196  -0.64778  -0.62452
 Alpha  occ. eigenvalues --   -0.60172  -0.54934  -0.53163  -0.52542  -0.49538
 Alpha  occ. eigenvalues --   -0.49428  -0.47689  -0.46301  -0.45799  -0.45061
 Alpha  occ. eigenvalues --   -0.44395  -0.42313  -0.41795  -0.40683  -0.39210
 Alpha  occ. eigenvalues --   -0.38470  -0.38278  -0.36665  -0.35099  -0.34652
 Alpha  occ. eigenvalues --   -0.33493  -0.33301  -0.32755  -0.32549  -0.29256
 Alpha  occ. eigenvalues --   -0.27611  -0.26724  -0.25823
 Alpha virt. eigenvalues --   -0.06422  -0.05506  -0.03860  -0.03116  -0.02379
 Alpha virt. eigenvalues --   -0.00866   0.00035   0.00400   0.00958   0.01748
 Alpha virt. eigenvalues --    0.02106   0.02583   0.03382   0.03834   0.04178
 Alpha virt. eigenvalues --    0.04649   0.05316   0.05516   0.06214   0.06756
 Alpha virt. eigenvalues --    0.07275   0.07753   0.08156   0.08678   0.09044
 Alpha virt. eigenvalues --    0.09712   0.09872   0.10356   0.10468   0.11134
 Alpha virt. eigenvalues --    0.11408   0.11678   0.11957   0.12077   0.12523
 Alpha virt. eigenvalues --    0.12962   0.13424   0.13724   0.14143   0.14421
 Alpha virt. eigenvalues --    0.14690   0.15037   0.15473   0.15991   0.16388
 Alpha virt. eigenvalues --    0.16940   0.17503   0.18025   0.18369   0.18564
 Alpha virt. eigenvalues --    0.19186   0.19461   0.19851   0.20144   0.20386
 Alpha virt. eigenvalues --    0.20676   0.20909   0.21698   0.21902   0.22307
 Alpha virt. eigenvalues --    0.22338   0.23137   0.23170   0.23896   0.24359
 Alpha virt. eigenvalues --    0.24648   0.24877   0.25206   0.25805   0.26200
 Alpha virt. eigenvalues --    0.26494   0.27588   0.27737   0.27900   0.28234
 Alpha virt. eigenvalues --    0.28445   0.29061   0.29555   0.29803   0.29883
 Alpha virt. eigenvalues --    0.30591   0.30939   0.32227   0.32699   0.34010
 Alpha virt. eigenvalues --    0.34675   0.34975   0.41465   0.41584   0.42959
 Alpha virt. eigenvalues --    0.43784   0.44358   0.45407   0.45697   0.45951
 Alpha virt. eigenvalues --    0.46818   0.47042   0.47631   0.47972   0.48155
 Alpha virt. eigenvalues --    0.49071   0.50689   0.52164   0.53105   0.53728
 Alpha virt. eigenvalues --    0.54928   0.55301   0.55838   0.56470   0.56615
 Alpha virt. eigenvalues --    0.57755   0.58462   0.59300   0.59824   0.60585
 Alpha virt. eigenvalues --    0.61423   0.61753   0.62446   0.62675   0.64452
 Alpha virt. eigenvalues --    0.65333   0.65926   0.67323   0.67340   0.67793
 Alpha virt. eigenvalues --    0.68574   0.68720   0.69532   0.70418   0.70519
 Alpha virt. eigenvalues --    0.71210   0.71857   0.73144   0.75490   0.77641
 Alpha virt. eigenvalues --    0.79996   0.80900   0.81601   0.81794   0.83162
 Alpha virt. eigenvalues --    0.84028   0.84396   0.84549   0.84945   0.85351
 Alpha virt. eigenvalues --    0.85547   0.85653   0.85913   0.86265   0.87066
 Alpha virt. eigenvalues --    0.87860   0.88650   0.88943   0.89710   0.90854
 Alpha virt. eigenvalues --    0.91091   0.91494   0.92244   0.92591   0.93635
 Alpha virt. eigenvalues --    0.93967   0.95277   0.95579   0.96022   0.96939
 Alpha virt. eigenvalues --    0.97754   0.99153   0.99821   1.01096   1.02166
 Alpha virt. eigenvalues --    1.04040   1.05154   1.05486   1.09646   1.10373
 Alpha virt. eigenvalues --    1.10522   1.12283   1.13992   1.17303   1.19536
 Alpha virt. eigenvalues --    1.21689   1.22671   1.23821   1.24542   1.26271
 Alpha virt. eigenvalues --    1.27497   1.29100   1.29571   1.29997   1.31883
 Alpha virt. eigenvalues --    1.34176   1.36006   1.40919   1.44153   1.47896
 Alpha virt. eigenvalues --    1.48561   1.50992   1.51521   1.54328   1.54789
 Alpha virt. eigenvalues --    1.55384   1.57065   1.57328   1.59663   1.61010
 Alpha virt. eigenvalues --    1.63010   1.63739   1.66989   1.68180   1.69656
 Alpha virt. eigenvalues --    1.70554   1.72312   1.73632   1.74559   1.77904
 Alpha virt. eigenvalues --    1.80102   1.83429   1.85285   1.87862   1.88728
 Alpha virt. eigenvalues --    1.89891   1.90447   1.91377   1.92240   1.94826
 Alpha virt. eigenvalues --    1.95780   1.96478   1.97377   1.97990   1.98901
 Alpha virt. eigenvalues --    2.00525   2.01929   2.04496   2.06734   2.08162
 Alpha virt. eigenvalues --    2.11174   2.12763   2.17026   2.19033   2.23284
 Alpha virt. eigenvalues --    2.23542   2.25604   2.27562   2.28064   2.29262
 Alpha virt. eigenvalues --    2.29629   2.31680   2.34199   2.37085   2.37833
 Alpha virt. eigenvalues --    2.39601   2.41479   2.43370   2.43762   2.47729
 Alpha virt. eigenvalues --    2.49188   2.52064   2.52472   2.54346   2.56244
 Alpha virt. eigenvalues --    2.58710   2.59664   2.63594   2.65404   2.65558
 Alpha virt. eigenvalues --    2.67468   2.68948   2.69825   2.72266   2.73626
 Alpha virt. eigenvalues --    2.75119   2.75263   2.76240   2.77305   2.78540
 Alpha virt. eigenvalues --    2.79348   2.80243   2.80886   2.83428   2.84699
 Alpha virt. eigenvalues --    2.85527   2.88400   2.91827   2.97873   2.99576
 Alpha virt. eigenvalues --    3.05626   3.06508   3.08401   3.13168   3.13672
 Alpha virt. eigenvalues --    3.16689   3.19939   3.21110   3.26485   3.33900
 Alpha virt. eigenvalues --    3.35310   3.36646   3.49304   3.49709   3.52468
 Alpha virt. eigenvalues --    3.59168   3.65555   3.75721   3.78196   3.82076
 Alpha virt. eigenvalues --    3.91415   3.99532   4.10158   4.11641   4.12928
 Alpha virt. eigenvalues --    4.37844   4.80279   4.83297   9.75191   9.77933
 Alpha virt. eigenvalues --    9.79224   9.80671  23.39596  23.59974  23.82551
 Alpha virt. eigenvalues --   23.88637  23.90078  23.92546  23.98217  24.03305
 Alpha virt. eigenvalues --   24.04920  24.06682  24.10519  24.16181  25.77990
 Alpha virt. eigenvalues --   25.83097  25.86136  25.88452  26.07218  26.12892
 Alpha virt. eigenvalues --   26.13662  26.31125  26.49359  26.60144  26.70726
 Alpha virt. eigenvalues --   26.77726 215.74238 215.77129 215.78655 215.80575
          Condensed to atoms (all electrons):
               1          2          3          4          5          6
     1  C   24.073238  -4.913621  -1.903009  -1.389465  -3.588160   2.283789
     2  C   -4.913621  22.840278  -1.369537   2.362117  -2.498949 -13.637783
     3  C   -1.903009  -1.369537   9.696461   0.159955   0.184740  -2.165177
     4  C   -1.389465   2.362117   0.159955  16.157918  -2.314603  -7.983607
     5  C   -3.588160  -2.498949   0.184740  -2.314603  20.742233 -10.596250
     6  C    2.283789 -13.637783  -2.165177  -7.983607 -10.596250  49.909367
     7  C   -2.023855   2.401168   0.872062  -0.226200   4.591388 -12.750538
     8  C    1.686283   2.097050  -0.253949   0.235206   1.084358  -3.281156
     9  C   -1.728126  -0.291765   0.172882  -0.180734   0.788607  -1.239455
    10  C    1.892537  -0.190026  -0.126310   0.033041  -0.161641   0.737478
    11  C    0.325228   0.383025  -0.075233   0.051315  -0.775271   0.999276
    12  C   -8.219192  -1.000273   0.535737  -0.261759  -1.749147   4.863010
    13  H    0.028920   0.339367  -0.033588  -0.008473   0.003298   0.000552
    14  H    0.006602   0.026084   0.364438   0.003250  -0.012478  -0.046206
    15  H    0.043398  -0.060149   0.007143   0.277580   0.081042  -0.002550
    16  H    0.013505   0.062469  -0.021523   0.058195   0.010346   0.179681
    17  H    0.028017   0.077249  -0.010807   0.010709  -0.026443  -0.001851
    18  H    0.012900   0.000684  -0.000226   0.000136  -0.000757  -0.000615
    19  Cl  -0.474609  -0.337951   0.054519  -0.133380   0.642567  -0.559931
    20  Cl  -0.374311   0.049727   0.182329  -0.188546  -1.128346   0.755091
    21  Cl  -0.015655   0.015799   0.002837  -0.001149   0.005142  -0.021989
    22  Cl  -0.263210   0.052417   0.033067  -0.006417   0.015033  -0.082601
               7          8          9         10         11         12
     1  C   -2.023855   1.686283  -1.728126   1.892537   0.325228  -8.219192
     2  C    2.401168   2.097050  -0.291765  -0.190026   0.383025  -1.000273
     3  C    0.872062  -0.253949   0.172882  -0.126310  -0.075233   0.535737
     4  C   -0.226200   0.235206  -0.180734   0.033041   0.051315  -0.261759
     5  C    4.591388   1.084358   0.788607  -0.161641  -0.775271  -1.749147
     6  C  -12.750538  -3.281156  -1.239455   0.737478   0.999276   4.863010
     7  C   39.934560   3.200165  -9.375502  -5.208271  -2.758503 -12.661562
     8  C    3.200165  25.699411   1.656574  -8.005815   0.939412 -18.187607
     9  C   -9.375502   1.656574  31.264133  -7.181011 -11.187418   2.779144
    10  C   -5.208271  -8.005815  -7.181011  29.598802   3.387596  -7.126987
    11  C   -2.758503   0.939412 -11.187418   3.387596  23.176354  -7.131211
    12  C  -12.661562 -18.187607   2.779144  -7.126987  -7.131211  52.973794
    13  H   -0.010534   0.058291  -0.009054  -0.003184   0.012064  -0.024260
    14  H    0.010387  -0.005272  -0.000991  -0.000026  -0.000054   0.002221
    15  H    0.009174  -0.000991   0.000015  -0.000018  -0.000119  -0.001279
    16  H   -0.012150  -0.057208  -0.010147   0.004847   0.006164   0.126480
    17  H   -0.039283   0.343688  -0.061414   0.063259  -0.017690  -0.015398
    18  H    0.106939  -0.032574   0.034120  -0.018007   0.266197  -0.021069
    19  Cl  -0.505247  -0.350725   0.660562  -0.407714  -0.666332   0.899645
    20  Cl  -0.049558   0.007476   0.006678   0.003414   0.009248  -0.007134
    21  Cl   0.253899   0.236862   0.099572  -1.037718   0.114037  -0.302274
    22  Cl  -0.524269   0.100937  -0.675706  -0.288068   0.080227   0.739057
              13         14         15         16         17         18
     1  C    0.028920   0.006602   0.043398   0.013505   0.028017   0.012900
     2  C    0.339367   0.026084  -0.060149   0.062469   0.077249   0.000684
     3  C   -0.033588   0.364438   0.007143  -0.021523  -0.010807  -0.000226
     4  C   -0.008473   0.003250   0.277580   0.058195   0.010709   0.000136
     5  C    0.003298  -0.012478   0.081042   0.010346  -0.026443  -0.000757
     6  C    0.000552  -0.046206  -0.002550   0.179681  -0.001851  -0.000615
     7  C   -0.010534   0.010387   0.009174  -0.012150  -0.039283   0.106939
     8  C    0.058291  -0.005272  -0.000991  -0.057208   0.343688  -0.032574
     9  C   -0.009054  -0.000991   0.000015  -0.010147  -0.061414   0.034120
    10  C   -0.003184  -0.000026  -0.000018   0.004847   0.063259  -0.018007
    11  C    0.012064  -0.000054  -0.000119   0.006164  -0.017690   0.266197
    12  C   -0.024260   0.002221  -0.001279   0.126480  -0.015398  -0.021069
    13  H    0.526608  -0.007232  -0.000188  -0.000179  -0.000581   0.000000
    14  H   -0.007232   0.529675  -0.008008   0.000065   0.000028   0.000000
    15  H   -0.000188  -0.008008   0.510749  -0.000247  -0.000001  -0.000000
    16  H   -0.000179   0.000065  -0.000247   0.499923   0.000001   0.000024
    17  H   -0.000581   0.000028  -0.000001   0.000001   0.500990   0.000040
    18  H    0.000000   0.000000  -0.000000   0.000024   0.000040   0.490240
    19  Cl  -0.001919  -0.000199   0.000222  -0.003203  -0.000983  -0.006682
    20  Cl   0.000326   0.000672  -0.007564  -0.009239  -0.000105  -0.000020
    21  Cl  -0.000002  -0.000001   0.000000  -0.000036   0.000309  -0.006402
    22  Cl   0.000190  -0.000003   0.000001  -0.000098  -0.006456   0.000219
              19         20         21         22
     1  C   -0.474609  -0.374311  -0.015655  -0.263210
     2  C   -0.337951   0.049727   0.015799   0.052417
     3  C    0.054519   0.182329   0.002837   0.033067
     4  C   -0.133380  -0.188546  -0.001149  -0.006417
     5  C    0.642567  -1.128346   0.005142   0.015033
     6  C   -0.559931   0.755091  -0.021989  -0.082601
     7  C   -0.505247  -0.049558   0.253899  -0.524269
     8  C   -0.350725   0.007476   0.236862   0.100937
     9  C    0.660562   0.006678   0.099572  -0.675706
    10  C   -0.407714   0.003414  -1.037718  -0.288068
    11  C   -0.666332   0.009248   0.114037   0.080227
    12  C    0.899645  -0.007134  -0.302274   0.739057
    13  H   -0.001919   0.000326  -0.000002   0.000190
    14  H   -0.000199   0.000672  -0.000001  -0.000003
    15  H    0.000222  -0.007564   0.000000   0.000001
    16  H   -0.003203  -0.009239  -0.000036  -0.000098
    17  H   -0.000983  -0.000105   0.000309  -0.006456
    18  H   -0.006682  -0.000020  -0.006402   0.000219
    19  Cl  17.774925   0.004507  -0.036209   0.002575
    20  Cl   0.004507  17.339117   0.000092   0.000060
    21  Cl  -0.036209   0.000092  17.371539  -0.167878
    22  Cl   0.002575   0.000060  -0.167878  17.468313
 Mulliken charges:
               1
     1  C    0.498797
     2  C   -0.407382
     3  C   -0.306810
     4  C   -0.655088
     5  C    0.703293
     6  C   -1.358534
     7  C    0.765731
     8  C   -1.170416
     9  C    0.479035
    10  C    0.033821
    11  C   -1.138312
    12  C   -0.209937
    13  H    0.129578
    14  H    0.137047
    15  H    0.151792
    16  H    0.152330
    17  H    0.156721
    18  H    0.174853
    19  Cl   0.445563
    20  Cl   0.406085
    21  Cl   0.489225
    22  Cl   0.522610
 Sum of Mulliken charges =  -0.00000
 Mulliken charges with hydrogens summed into heavy atoms:
               1
     1  C    0.498797
     2  C   -0.277805
     3  C   -0.169764
     4  C   -0.503296
     5  C    0.703293
     6  C   -1.206204
     7  C    0.765731
     8  C   -1.013696
     9  C    0.479035
    10  C    0.033821
    11  C   -0.963459
    12  C   -0.209937
    19  Cl   0.445563
    20  Cl   0.406085
    21  Cl   0.489225
    22  Cl   0.522610
 Electronic spatial extent (au):  <R**2>=           6729.3562
 Charge=             -0.0000 electrons
 Dipole moment (field-independent basis, Debye):
    X=             -0.5294    Y=              1.1013    Z=              1.2022  Tot=              1.7142
 Quadrupole moment (field-independent basis, Debye-Ang):
   XX=           -126.6913   YY=           -116.9315   ZZ=           -120.1305
   XY=             -7.0080   XZ=             -3.9143   YZ=              4.1845
 Traceless Quadrupole moment (field-independent basis, Debye-Ang):
   XX=             -5.4402   YY=              4.3196   ZZ=              1.1206
   XY=             -7.0080   XZ=             -3.9143   YZ=              4.1845
 Octapole moment (field-independent basis, Debye-Ang**2):
  XXX=              0.3243  YYY=             -6.6347  ZZZ=             -4.1006  XYY=              3.3950
  XXY=              8.0557  XXZ=             19.8859  XZZ=              0.7984  YZZ=              3.7254
  YYZ=              4.8208  XYZ=            -12.1501
 Hexadecapole moment (field-independent basis, Debye-Ang**3):
 XXXX=          -6827.3418 YYYY=          -1533.4989 ZZZZ=           -565.6537 XXXY=            -77.2972
 XXXZ=            -80.2097 YYYX=             27.6978 YYYZ=             -1.7379 ZZZX=             11.4575
 ZZZY=             13.0427 XXYY=          -1345.9613 XXZZ=          -1236.9874 YYZZ=           -340.4209
 XXYZ=             36.7337 YYXZ=            -20.6351 ZZXY=              0.4413
 N-N= 1.416424789743D+03 E-N=-8.277081855331D+03  KE= 2.295552244054D+03
 1\1\GINC-LOCALHOST\FOpt\RB3LYP\6-311+G(d,p)\C12H6Cl4\GOUR\16-Mar-2022\
 0\\# opt b3lyp/6-311+g(d,p) scf=xqc\\Title Card Required\\0,1\C,0.3614
 86861,0.837864967,0.0667567319\C,1.7458286067,0.8159837132,0.271684937
 9\C,2.4806402767,1.9988110993,0.2455945879\C,1.8519820572,3.2182497687
 ,0.0091633745\C,0.476050049,3.2303480102,-0.1993604697\C,-0.2747657453
 ,2.061677745,-0.1724426476\C,-0.4097674853,-0.4362161106,0.057981862\C
 ,-0.0526434534,-1.4351936095,-0.8550994389\C,-0.7231558162,-2.65192044
 77,-0.9211735038\C,-1.7897426974,-2.8976446403,-0.0529513652\C,-2.1611
 182111,-1.9241996028,0.8692820617\C,-1.4799730979,-0.7134378463,0.9215
 147661\H,2.2436447073,-0.126433334,0.467751247\H,3.5510083671,1.973767
 2616,0.4139692188\H,2.414582491,4.1425356028,-0.0135978914\H,-1.341897
 9591,2.1035436309,-0.3450426151\H,0.7605369029,-1.2505329729,-1.545228
 5375\H,-2.9768647468,-2.1173996825,1.5520711288\Cl,-1.9793640862,0.437
 3191715,2.1498221183\Cl,-0.3339541329,4.7595707574,-0.5117616192\Cl,-2
 .673415155,-4.400587136,-0.0858198868\Cl,-0.2111976224,-3.833948525,-2
 .0990236397\\Version=EM64L-G16RevB.01\State=1-A\HF=-2301.9018302\RMSD=
 3.366e-09\RMSF=1.436e-05\Dipole=0.6650473,0.0120505,0.1113611\Quadrupo
 le=7.7857932,-6.3418705,-1.4439228,2.4562314,-0.3928993,-1.1532644\PG=
 C01 [X(C12H6Cl4)]\\@


 KNOWING HOW CONTENTED, FREE, AND JOYFUL IS LIFE IN
 THE REALMS OF SCIENCE, ONE FERVENTLY WISHES THAT
 MANY WOULD ENTER HER PORTALS.
   --  DMITRI IVANOVICH MENDELEEV
 "FIRST PRINCIPLES OF CHEMISTRY", LONGMANS, GREEN,
 AND CO.  LONDON, 1891
 Job cpu time:       0 days 10 hours 39 minutes 53.0 seconds.
 Elapsed time:       0 days  2 hours 40 minutes 26.7 seconds.
 File lengths (MBytes):  RWF=    120 Int=      0 D2E=      0 Chk=     19 Scr=      1
 Normal termination of Gaussian 16 at Wed Mar 16 02:15:26 2022.
