 Entering Gaussian System, Link 0=g16
 Input=2,3prime-Dichlorobiphenyl.gjf
 Output=2,3prime-Dichlorobiphenyl.log
 Initial command:
 /usr/local/g16/l1.exe "/scratch/pkc/Gau-2813.inp" -scrdir="/scratch/pkc/"
 Entering Link 1 = /usr/local/g16/l1.exe PID=      2814.
  
 Copyright (c) 1988-2017, Gaussian, Inc.  All Rights Reserved.
  
 This is part of the Gaussian(R) 16 program.  It is based on
 the Gaussian(R) 09 system (copyright 2009, Gaussian, Inc.),
 the Gaussian(R) 03 system (copyright 2003, Gaussian, Inc.),
 the Gaussian(R) 98 system (copyright 1998, Gaussian, Inc.),
 the Gaussian(R) 94 system (copyright 1995, Gaussian, Inc.),
 the Gaussian 92(TM) system (copyright 1992, Gaussian, Inc.),
 the Gaussian 90(TM) system (copyright 1990, Gaussian, Inc.),
 the Gaussian 88(TM) system (copyright 1988, Gaussian, Inc.),
 the Gaussian 86(TM) system (copyright 1986, Carnegie Mellon
 University), and the Gaussian 82(TM) system (copyright 1983,
 Carnegie Mellon University). Gaussian is a federally registered
 trademark of Gaussian, Inc.
  
 This software contains proprietary and confidential information,
 including trade secrets, belonging to Gaussian, Inc.
  
 This software is provided under written license and may be
 used, copied, transmitted, or stored only in accord with that
 written license.
  
 The following legend is applicable only to US Government
 contracts under FAR:
  
                    RESTRICTED RIGHTS LEGEND
  
 Use, reproduction and disclosure by the US Government is
 subject to restrictions as set forth in subparagraphs (a)
 and (c) of the Commercial Computer Software - Restricted
 Rights clause in FAR 52.227-19.
  
 Gaussian, Inc.
 340 Quinnipiac St., Bldg. 40, Wallingford CT 06492
  
  
 ---------------------------------------------------------------
 Warning -- This program may not be used in any manner that
 competes with the business of Gaussian, Inc. or will provide
 assistance to any competitor of Gaussian, Inc.  The licensee
 of this program is prohibited from giving any competitor of
 Gaussian, Inc. access to this program.  By using this program,
 the user acknowledges that Gaussian, Inc. is engaged in the
 business of creating and licensing software in the field of
 computational chemistry and represents and warrants to the
 licensee that it is not a competitor of Gaussian, Inc. and that
 it will not use this program in any manner prohibited above.
 ---------------------------------------------------------------
  

 Cite this work as:
 Gaussian 16, Revision B.01,
 M. J. Frisch, G. W. Trucks, H. B. Schlegel, G. E. Scuseria, 
 M. A. Robb, J. R. Cheeseman, G. Scalmani, V. Barone, 
 G. A. Petersson, H. Nakatsuji, X. Li, M. Caricato, A. V. Marenich, 
 J. Bloino, B. G. Janesko, R. Gomperts, B. Mennucci, H. P. Hratchian, 
 J. V. Ortiz, A. F. Izmaylov, J. L. Sonnenberg, D. Williams-Young, 
 F. Ding, F. Lipparini, F. Egidi, J. Goings, B. Peng, A. Petrone, 
 T. Henderson, D. Ranasinghe, V. G. Zakrzewski, J. Gao, N. Rega, 
 G. Zheng, W. Liang, M. Hada, M. Ehara, K. Toyota, R. Fukuda, 
 J. Hasegawa, M. Ishida, T. Nakajima, Y. Honda, O. Kitao, H. Nakai, 
 T. Vreven, K. Throssell, J. A. Montgomery, Jr., J. E. Peralta, 
 F. Ogliaro, M. J. Bearpark, J. J. Heyd, E. N. Brothers, K. N. Kudin, 
 V. N. Staroverov, T. A. Keith, R. Kobayashi, J. Normand, 
 K. Raghavachari, A. P. Rendell, J. C. Burant, S. S. Iyengar, 
 J. Tomasi, M. Cossi, J. M. Millam, M. Klene, C. Adamo, R. Cammi, 
 J. W. Ochterski, R. L. Martin, K. Morokuma, O. Farkas, 
 J. B. Foresman, and D. J. Fox, Gaussian, Inc., Wallingford CT, 2016.
 
 ******************************************
 Gaussian 16:  EM64L-G16RevB.01 20-Dec-2017
                14-Mar-2022 
 ******************************************
 %mem=10GB
 %nprocshared=4
 Will use up to    4 processors via shared memory.
 --------------------------------
 # opt b3lyp/6-311+g(d,p) scf=xqc
 --------------------------------
 1/18=20,19=15,26=3,38=1/1,3;
 2/9=110,12=2,17=6,18=5,40=1/2;
 3/5=4,6=6,7=111,11=2,25=1,30=1,71=1,74=-5/1,2,3;
 4//1;
 5/5=2,8=3,13=1,38=5/2,8;
 6/7=2,8=2,9=2,10=2,28=1/1;
 7//1,2,3,16;
 1/18=20,19=15,26=3/3(2);
 2/9=110/2;
 99//99;
 2/9=110/2;
 3/5=4,6=6,7=111,11=2,25=1,30=1,71=1,74=-5/1,2,3;
 4/5=5,16=3,69=1/1;
 5/5=2,8=3,13=1,38=5/2,8;
 7//1,2,3,16;
 1/18=20,19=15,26=3/3(-5);
 2/9=110/2;
 6/7=2,8=2,9=2,10=2,19=2,28=1/1;
 99/9=1/99;
 -------------------
 Title Card Required
 -------------------
 Symbolic Z-matrix:
 Charge =  0 Multiplicity = 1
 C                    -3.10205  -2.15882  -0.31805 
 C                    -1.76967  -2.12894  -0.7514 
 C                    -1.06178  -0.91948  -0.75747 
 C                    -1.68627   0.26008  -0.3302 
 C                    -3.01865   0.2302    0.10315 
 C                    -3.72654  -0.97926   0.10922 
 C                    -3.87996  -3.48789  -0.31138 
 C                    -3.25547  -4.66745  -0.73865 
 C                    -3.96336  -5.8769   -0.73258 
 C                    -5.29574  -5.90679  -0.29923 
 C                    -5.92023  -4.72723   0.12805 
 C                    -5.21234  -3.51777   0.12197 
 H                    -0.04448  -0.89667  -1.08834 
 H                    -1.14577   1.18352  -0.33483 
 H                    -3.49546   1.13082   0.42938 
 H                    -4.74384  -1.00207   0.44009 
 H                    -2.23817  -4.64463  -1.06952 
 H                    -5.83624  -6.83023  -0.29459 
 H                    -6.93753  -4.75005   0.45892 
 H                    -5.68915  -2.61715   0.44821 
 Cl                   -0.98539  -3.61034  -1.28801 
 Cl                   -3.17908  -7.3583   -1.26919 
 

 GradGradGradGradGradGradGradGradGradGradGradGradGradGradGradGradGradGrad
 Berny optimization.
 Initialization pass.
                           ----------------------------
                           !    Initial Parameters    !
                           ! (Angstroms and Degrees)  !
 --------------------------                            --------------------------
 ! Name  Definition              Value          Derivative Info.                !
 --------------------------------------------------------------------------------
 ! R1    R(1,2)                  1.4014         estimate D2E/DX2                !
 ! R2    R(1,6)                  1.4014         estimate D2E/DX2                !
 ! R3    R(1,7)                  1.54           estimate D2E/DX2                !
 ! R4    R(2,3)                  1.4014         estimate D2E/DX2                !
 ! R5    R(2,21)                 1.76           estimate D2E/DX2                !
 ! R6    R(3,4)                  1.4014         estimate D2E/DX2                !
 ! R7    R(3,13)                 1.07           estimate D2E/DX2                !
 ! R8    R(4,5)                  1.4014         estimate D2E/DX2                !
 ! R9    R(4,14)                 1.07           estimate D2E/DX2                !
 ! R10   R(5,6)                  1.4014         estimate D2E/DX2                !
 ! R11   R(5,15)                 1.07           estimate D2E/DX2                !
 ! R12   R(6,16)                 1.07           estimate D2E/DX2                !
 ! R13   R(7,8)                  1.4014         estimate D2E/DX2                !
 ! R14   R(7,12)                 1.4014         estimate D2E/DX2                !
 ! R15   R(8,9)                  1.4014         estimate D2E/DX2                !
 ! R16   R(8,17)                 1.07           estimate D2E/DX2                !
 ! R17   R(9,10)                 1.4014         estimate D2E/DX2                !
 ! R18   R(9,22)                 1.76           estimate D2E/DX2                !
 ! R19   R(10,11)                1.4014         estimate D2E/DX2                !
 ! R20   R(10,18)                1.07           estimate D2E/DX2                !
 ! R21   R(11,12)                1.4014         estimate D2E/DX2                !
 ! R22   R(11,19)                1.07           estimate D2E/DX2                !
 ! R23   R(12,20)                1.07           estimate D2E/DX2                !
 ! A1    A(2,1,6)              120.0            estimate D2E/DX2                !
 ! A2    A(2,1,7)              120.0            estimate D2E/DX2                !
 ! A3    A(6,1,7)              120.0            estimate D2E/DX2                !
 ! A4    A(1,2,3)              120.0            estimate D2E/DX2                !
 ! A5    A(1,2,21)             120.0            estimate D2E/DX2                !
 ! A6    A(3,2,21)             120.0            estimate D2E/DX2                !
 ! A7    A(2,3,4)              120.0            estimate D2E/DX2                !
 ! A8    A(2,3,13)             120.0            estimate D2E/DX2                !
 ! A9    A(4,3,13)             120.0            estimate D2E/DX2                !
 ! A10   A(3,4,5)              120.0            estimate D2E/DX2                !
 ! A11   A(3,4,14)             120.0            estimate D2E/DX2                !
 ! A12   A(5,4,14)             120.0            estimate D2E/DX2                !
 ! A13   A(4,5,6)              120.0            estimate D2E/DX2                !
 ! A14   A(4,5,15)             120.0            estimate D2E/DX2                !
 ! A15   A(6,5,15)             120.0            estimate D2E/DX2                !
 ! A16   A(1,6,5)              120.0            estimate D2E/DX2                !
 ! A17   A(1,6,16)             120.0            estimate D2E/DX2                !
 ! A18   A(5,6,16)             120.0            estimate D2E/DX2                !
 ! A19   A(1,7,8)              120.0            estimate D2E/DX2                !
 ! A20   A(1,7,12)             120.0            estimate D2E/DX2                !
 ! A21   A(8,7,12)             120.0            estimate D2E/DX2                !
 ! A22   A(7,8,9)              120.0            estimate D2E/DX2                !
 ! A23   A(7,8,17)             120.0            estimate D2E/DX2                !
 ! A24   A(9,8,17)             120.0            estimate D2E/DX2                !
 ! A25   A(8,9,10)             120.0            estimate D2E/DX2                !
 ! A26   A(8,9,22)             120.0            estimate D2E/DX2                !
 ! A27   A(10,9,22)            120.0            estimate D2E/DX2                !
 ! A28   A(9,10,11)            120.0            estimate D2E/DX2                !
 ! A29   A(9,10,18)            120.0            estimate D2E/DX2                !
 ! A30   A(11,10,18)           120.0            estimate D2E/DX2                !
 ! A31   A(10,11,12)           120.0            estimate D2E/DX2                !
 ! A32   A(10,11,19)           120.0            estimate D2E/DX2                !
 ! A33   A(12,11,19)           120.0            estimate D2E/DX2                !
 ! A34   A(7,12,11)            120.0            estimate D2E/DX2                !
 ! A35   A(7,12,20)            120.0            estimate D2E/DX2                !
 ! A36   A(11,12,20)           120.0            estimate D2E/DX2                !
 ! D1    D(6,1,2,3)              0.0001         estimate D2E/DX2                !
 ! D2    D(6,1,2,21)           180.0            estimate D2E/DX2                !
 ! D3    D(7,1,2,3)           -180.0            estimate D2E/DX2                !
 ! D4    D(7,1,2,21)            -0.0001         estimate D2E/DX2                !
 ! D5    D(2,1,6,5)             -0.0001         estimate D2E/DX2                !
 ! D6    D(2,1,6,16)           180.0            estimate D2E/DX2                !
 ! D7    D(7,1,6,5)            180.0            estimate D2E/DX2                !
 ! D8    D(7,1,6,16)             0.0            estimate D2E/DX2                !
 ! D9    D(2,1,7,8)             -0.0001         estimate D2E/DX2                !
 ! D10   D(2,1,7,12)           179.9998         estimate D2E/DX2                !
 ! D11   D(6,1,7,8)            179.9999         estimate D2E/DX2                !
 ! D12   D(6,1,7,12)            -0.0002         estimate D2E/DX2                !
 ! D13   D(1,2,3,4)              0.0            estimate D2E/DX2                !
 ! D14   D(1,2,3,13)           180.0            estimate D2E/DX2                !
 ! D15   D(21,2,3,4)          -179.9999         estimate D2E/DX2                !
 ! D16   D(21,2,3,13)            0.0001         estimate D2E/DX2                !
 ! D17   D(2,3,4,5)             -0.0001         estimate D2E/DX2                !
 ! D18   D(2,3,4,14)           180.0            estimate D2E/DX2                !
 ! D19   D(13,3,4,5)           179.9999         estimate D2E/DX2                !
 ! D20   D(13,3,4,14)            0.0            estimate D2E/DX2                !
 ! D21   D(3,4,5,6)              0.0001         estimate D2E/DX2                !
 ! D22   D(3,4,5,15)          -179.9999         estimate D2E/DX2                !
 ! D23   D(14,4,5,6)          -180.0            estimate D2E/DX2                !
 ! D24   D(14,4,5,15)            0.0            estimate D2E/DX2                !
 ! D25   D(4,5,6,1)              0.0            estimate D2E/DX2                !
 ! D26   D(4,5,6,16)           179.9999         estimate D2E/DX2                !
 ! D27   D(15,5,6,1)           180.0            estimate D2E/DX2                !
 ! D28   D(15,5,6,16)           -0.0001         estimate D2E/DX2                !
 ! D29   D(1,7,8,9)            179.9999         estimate D2E/DX2                !
 ! D30   D(1,7,8,17)             0.0001         estimate D2E/DX2                !
 ! D31   D(12,7,8,9)             0.0001         estimate D2E/DX2                !
 ! D32   D(12,7,8,17)         -179.9998         estimate D2E/DX2                !
 ! D33   D(1,7,12,11)         -179.9999         estimate D2E/DX2                !
 ! D34   D(1,7,12,20)            0.0            estimate D2E/DX2                !
 ! D35   D(8,7,12,11)           -0.0001         estimate D2E/DX2                !
 ! D36   D(8,7,12,20)          179.9999         estimate D2E/DX2                !
 ! D37   D(7,8,9,10)             0.0            estimate D2E/DX2                !
 ! D38   D(7,8,9,22)           180.0            estimate D2E/DX2                !
 ! D39   D(17,8,9,10)          179.9998         estimate D2E/DX2                !
 ! D40   D(17,8,9,22)           -0.0002         estimate D2E/DX2                !
 ! D41   D(8,9,10,11)            0.0            estimate D2E/DX2                !
 ! D42   D(8,9,10,18)         -179.9999         estimate D2E/DX2                !
 ! D43   D(22,9,10,11)         180.0            estimate D2E/DX2                !
 ! D44   D(22,9,10,18)           0.0001         estimate D2E/DX2                !
 ! D45   D(9,10,11,12)           0.0            estimate D2E/DX2                !
 ! D46   D(9,10,11,19)        -179.9998         estimate D2E/DX2                !
 ! D47   D(18,10,11,12)        179.9999         estimate D2E/DX2                !
 ! D48   D(18,10,11,19)          0.0001         estimate D2E/DX2                !
 ! D49   D(10,11,12,7)           0.0            estimate D2E/DX2                !
 ! D50   D(10,11,12,20)       -179.9999         estimate D2E/DX2                !
 ! D51   D(19,11,12,7)         179.9999         estimate D2E/DX2                !
 ! D52   D(19,11,12,20)         -0.0001         estimate D2E/DX2                !
 --------------------------------------------------------------------------------
 Trust Radius=3.00D-01 FncErr=1.00D-07 GrdErr=1.00D-06 EigMax=2.50D+02 EigMin=1.00D-04
 Number of steps in this run=    121 maximum allowed number of steps=    132.
 GradGradGradGradGradGradGradGradGradGradGradGradGradGradGradGradGradGrad

                          Input orientation:                          
 ---------------------------------------------------------------------
 Center     Atomic      Atomic             Coordinates (Angstroms)
 Number     Number       Type             X           Y           Z
 ---------------------------------------------------------------------
      1          6           0       -3.102054   -2.158821   -0.318053
      2          6           0       -1.769673   -2.128935   -0.751400
      3          6           0       -1.061779   -0.919484   -0.757472
      4          6           0       -1.686267    0.260081   -0.330197
      5          6           0       -3.018648    0.230196    0.103147
      6          6           0       -3.726542   -0.979256    0.109220
      7          6           0       -3.879959   -3.487888   -0.311379
      8          6           0       -3.255471   -4.667453   -0.738654
      9          6           0       -3.963364   -5.876905   -0.732580
     10          6           0       -5.295744   -5.906791   -0.299230
     11          6           0       -5.920232   -4.727226    0.128045
     12          6           0       -5.212339   -3.517775    0.121971
     13          1           0       -0.044476   -0.896666   -1.088341
     14          1           0       -1.145774    1.183524   -0.334833
     15          1           0       -3.495459    1.130820    0.429379
     16          1           0       -4.743845   -1.002074    0.440089
     17          1           0       -2.238169   -4.644635   -1.069524
     18          1           0       -5.836236   -6.830234   -0.294590
     19          1           0       -6.937533   -4.750045    0.458920
     20          1           0       -5.689148   -2.617151    0.448206
     21         17           0       -0.985386   -3.610336   -1.288005
     22         17           0       -3.179079   -7.358305   -1.269189
 ---------------------------------------------------------------------
                    Distance matrix (angstroms):
                    1          2          3          4          5
     1  C    0.000000
     2  C    1.401400   0.000000
     3  C    2.427296   1.401400   0.000000
     4  C    2.802800   2.427296   1.401400   0.000000
     5  C    2.427296   2.802800   2.427296   1.401400   0.000000
     6  C    1.401400   2.427296   2.802800   2.427296   1.401400
     7  C    1.540000   2.548270   3.838989   4.342800   3.838989
     8  C    2.548270   2.941400   4.342800   5.187469   4.975106
     9  C    3.838989   4.342800   5.744200   6.558176   6.235992
    10  C    4.342800   5.187469   6.558176   7.145600   6.558176
    11  C    3.838989   4.975106   6.235992   6.558176   5.744200
    12  C    2.548270   3.813607   4.975106   5.187469   4.342800
    13  H    3.396345   2.146700   1.070000   2.146700   3.396345
    14  H    3.872800   3.396345   2.146700   1.070000   2.146700
    15  H    3.396345   3.872800   3.396345   2.146700   1.070000
    16  H    2.146700   3.396345   3.872800   3.396345   2.146700
    17  H    2.736837   2.578650   3.918930   4.990735   5.074276
    18  H    5.412800   6.232802   7.612271   8.215600   7.612271
    19  H    4.693509   5.919617   7.118798   7.300676   6.347206
    20  H    2.736837   4.127917   5.074276   4.990735   3.918930
    21  Cl   2.743718   1.760000   2.743718   4.048303   4.562800
    22  Cl   5.286324   5.440665   6.797295   7.819846   7.713260
                    6          7          8          9         10
     6  C    0.000000
     7  C    2.548270   0.000000
     8  C    3.813607   1.401400   0.000000
     9  C    4.975106   2.427296   1.401400   0.000000
    10  C    5.187469   2.802800   2.427296   1.401400   0.000000
    11  C    4.342800   2.427296   2.802800   2.427296   1.401400
    12  C    2.941400   1.401400   2.427296   2.802800   2.427296
    13  H    3.872800   4.693509   4.965039   6.347206   7.300676
    14  H    3.396345   5.412800   6.232802   7.612271   8.215600
    15  H    2.146700   4.693509   5.919617   7.118798   7.300676
    16  H    1.070000   2.736837   4.127917   5.074276   4.990735
    17  H    4.127917   2.146700   1.070000   2.146700   3.396345
    18  H    6.232802   3.872800   3.396345   2.146700   1.070000
    19  H    4.965039   3.396345   3.872800   3.396345   2.146700
    20  H    2.578650   2.146700   3.396345   3.872800   3.396345
    21  Cl   4.048303   3.057342   2.563702   3.783409   4.983028
    22  Cl   6.549198   4.048303   2.743718   1.760000   2.743718
                   11         12         13         14         15
    11  C    0.000000
    12  C    1.401400   0.000000
    13  H    7.118798   5.919617   0.000000
    14  H    7.612271   6.232802   2.471400   0.000000
    15  H    6.347206   4.965039   4.280590   2.471400   0.000000
    16  H    3.918930   2.578650   4.942800   4.280590   2.471400
    17  H    3.872800   3.396345   4.342800   5.974992   6.097816
    18  H    2.146700   3.396345   8.329571   9.285600   8.329571
    19  H    1.070000   2.146700   8.047159   8.329571   6.814200
    20  H    2.146700   1.070000   6.097816   5.974992   4.342800
    21  Cl   5.254079   4.456874   2.879094   4.890332   5.632800
    22  Cl   4.048303   4.562800   7.184095   8.830073   8.663168
                   16         17         18         19         20
    16  H    0.000000
    17  H    4.671787   0.000000
    18  H    5.974992   4.280590   0.000000
    19  H    4.342800   4.942800   2.471400   0.000000
    20  H    1.871400   4.280590   4.280590   2.471400   0.000000
    21  Cl   4.890332   1.639199   5.906383   6.307038   5.111382
    22  Cl   6.765486   2.879094   2.879094   4.890332   5.632800
                   21         22
    21  Cl   0.000000
    22  Cl   4.342800   0.000000
 Stoichiometry    C12H8Cl2
 Framework group  C1[X(C12H8Cl2)]
 Deg. of freedom    60
 Full point group                 C1      NOp   1
 Largest Abelian subgroup         C1      NOp   1
 Largest concise Abelian subgroup C1      NOp   1
                         Standard orientation:                         
 ---------------------------------------------------------------------
 Center     Atomic      Atomic             Coordinates (Angstroms)
 Number     Number       Type             X           Y           Z
 ---------------------------------------------------------------------
      1          6           0        1.361215    0.491681   -0.000001
      2          6           0        1.777853   -0.846353   -0.000000
      3          6           0        3.144943   -1.154552    0.000001
      4          6           0        4.095396   -0.124716    0.000001
      5          6           0        3.678758    1.213318   -0.000002
      6          6           0        2.311667    1.521516   -0.000003
      7          6           0       -0.141082    0.830360   -0.000001
      8          6           0       -1.091535   -0.199476   -0.000002
      9          6           0       -2.458625    0.108722   -0.000001
     10          6           0       -2.875263    1.446756    0.000002
     11          6           0       -1.924810    2.476592    0.000003
     12          6           0       -0.557720    2.168394    0.000002
     13          1           0        3.463055   -2.176170    0.000002
     14          1           0        5.139199   -0.360032    0.000002
     15          1           0        4.404449    1.999621   -0.000004
     16          1           0        1.993555    2.543135   -0.000004
     17          1           0       -0.773422   -1.221095   -0.000001
     18          1           0       -3.919066    1.682072    0.000004
     19          1           0       -2.242922    3.498210    0.000007
     20          1           0        0.167972    2.954696    0.000004
     21         17           0        0.584192   -2.139711    0.000002
     22         17           0       -3.652286   -1.184635   -0.000002
 ---------------------------------------------------------------------
 Rotational constants (GHZ):           1.0388310           0.3603375           0.2675373
 Standard basis: 6-311+G(d,p) (5D, 7F)
 There are   386 symmetry adapted cartesian basis functions of A   symmetry.
 There are   372 symmetry adapted basis functions of A   symmetry.
   372 basis functions,   602 primitive gaussians,   386 cartesian basis functions
    57 alpha electrons       57 beta electrons
       nuclear repulsion energy       991.5356625494 Hartrees.
 NAtoms=   22 NActive=   22 NUniq=   22 SFac= 1.00D+00 NAtFMM=   60 NAOKFM=F Big=F
 Integral buffers will be    131072 words long.
 Raffenetti 2 integral format.
 Two-electron integral symmetry is turned on.
 One-electron integrals computed using PRISM.
 NBasis=   372 RedAO= T EigKep=  1.18D-06  NBF=   372
 NBsUse=   368 1.00D-06 EigRej=  8.44D-07 NBFU=   368
 ExpMin= 4.38D-02 ExpMax= 1.06D+05 ExpMxC= 3.62D+03 IAcc=3 IRadAn=         5 AccDes= 0.00D+00
 Harris functional with IExCor=  402 and IRadAn=       5 diagonalized for initial guess.
 HarFok:  IExCor=  402 AccDes= 0.00D+00 IRadAn=         5 IDoV= 1 UseB2=F ITyADJ=14
 ICtDFT=  3500011 ScaDFX=  1.000000  1.000000  1.000000  1.000000
 FoFCou: FMM=F IPFlag=           0 FMFlag=      100000 FMFlg1=           0
         NFxFlg=           0 DoJE=T BraDBF=F KetDBF=T FulRan=T
         wScrn=  0.000000 ICntrl=       500 IOpCl=  0 I1Cent=   200000004 NGrid=           0
         NMat0=    1 NMatS0=      1 NMatT0=    0 NMatD0=    1 NMtDS0=    0 NMtDT0=    0
 Petite list used in FoFCou.
 Requested convergence on RMS density matrix=1.00D-08 within  32 cycles.
 Requested convergence on MAX density matrix=1.00D-06.
 Requested convergence on             energy=1.00D-06.
 No special actions if energy rises.
 EnCoef did     3 forward-backward iterations
 SCF Done:  E(RB3LYP) =  -1382.60315964     A.U. after   16 cycles
            NFock= 16  Conv=0.52D-08     -V/T= 2.0029
 QCSCF skips out because SCF is already converged.

 **********************************************************************

            Population analysis using the SCF Density.

 **********************************************************************

 Orbital symmetries:
       Occupied  (A) (A) (A) (A) (A) (A) (A) (A) (A) (A) (A) (A)
                 (A) (A) (A) (A) (A) (A) (A) (A) (A) (A) (A) (A)
                 (A) (A) (A) (A) (A) (A) (A) (A) (A) (A) (A) (A)
                 (A) (A) (A) (A) (A) (A) (A) (A) (A) (A) (A) (A)
                 (A) (A) (A) (A) (A) (A) (A) (A) (A)
       Virtual   (A) (A) (A) (A) (A) (A) (A) (A) (A) (A) (A) (A)
                 (A) (A) (A) (A) (A) (A) (A) (A) (A) (A) (A) (A)
                 (A) (A) (A) (A) (A) (A) (A) (A) (A) (A) (A) (A)
                 (A) (A) (A) (A) (A) (A) (A) (A) (A) (A) (A) (A)
                 (A) (A) (A) (A) (A) (A) (A) (A) (A) (A) (A) (A)
                 (A) (A) (A) (A) (A) (A) (A) (A) (A) (A) (A) (A)
                 (A) (A) (A) (A) (A) (A) (A) (A) (A) (A) (A) (A)
                 (A) (A) (A) (A) (A) (A) (A) (A) (A) (A) (A) (A)
                 (A) (A) (A) (A) (A) (A) (A) (A) (A) (A) (A) (A)
                 (A) (A) (A) (A) (A) (A) (A) (A) (A) (A) (A) (A)
                 (A) (A) (A) (A) (A) (A) (A) (A) (A) (A) (A) (A)
                 (A) (A) (A) (A) (A) (A) (A) (A) (A) (A) (A) (A)
                 (A) (A) (A) (A) (A) (A) (A) (A) (A) (A) (A) (A)
                 (A) (A) (A) (A) (A) (A) (A) (A) (A) (A) (A) (A)
                 (A) (A) (A) (A) (A) (A) (A) (A) (A) (A) (A) (A)
                 (A) (A) (A) (A) (A) (A) (A) (A) (A) (A) (A) (A)
                 (A) (A) (A) (A) (A) (A) (A) (A) (A) (A) (A) (A)
                 (A) (A) (A) (A) (A) (A) (A) (A) (A) (A) (A) (A)
                 (A) (A) (A) (A) (A) (A) (A) (A) (A) (A) (A) (A)
                 (A) (A) (A) (A) (A) (A) (A) (A) (A) (A) (A) (A)
                 (A) (A) (A) (A) (A) (A) (A) (A) (A) (A) (A) (A)
                 (A) (A) (A) (A) (A) (A) (A) (A) (A) (A) (A) (A)
                 (A) (A) (A) (A) (A) (A) (A) (A) (A) (A) (A) (A)
                 (A) (A) (A) (A) (A) (A) (A) (A) (A) (A) (A) (A)
                 (A) (A) (A) (A) (A) (A) (A) (A) (A) (A) (A) (A)
                 (A) (A) (A) (A) (A) (A) (A) (A) (A) (A) (A)
 The electronic state is 1-A.
 Alpha  occ. eigenvalues -- -101.56673-101.55359 -10.25607 -10.23989 -10.21746
 Alpha  occ. eigenvalues --  -10.20664 -10.20319 -10.19891 -10.19826 -10.19693
 Alpha  occ. eigenvalues --  -10.19094 -10.18974 -10.18784 -10.16872  -9.48468
 Alpha  occ. eigenvalues --   -9.46808  -7.24861  -7.23923  -7.23909  -7.23261
 Alpha  occ. eigenvalues --   -7.22296  -7.22264  -0.92165  -0.88981  -0.86196
 Alpha  occ. eigenvalues --   -0.84334  -0.79115  -0.75911  -0.75200  -0.73515
 Alpha  occ. eigenvalues --   -0.64739  -0.63444  -0.61654  -0.59412  -0.54313
 Alpha  occ. eigenvalues --   -0.53068  -0.50008  -0.48908  -0.47799  -0.45980
 Alpha  occ. eigenvalues --   -0.45048  -0.44369  -0.44096  -0.42390  -0.39528
 Alpha  occ. eigenvalues --   -0.39401  -0.38991  -0.37632  -0.36628  -0.35702
 Alpha  occ. eigenvalues --   -0.34194  -0.31693  -0.29799  -0.27904  -0.26951
 Alpha  occ. eigenvalues --   -0.25617  -0.24303
 Alpha virt. eigenvalues --   -0.05953  -0.04276  -0.02351  -0.00912  -0.00206
 Alpha virt. eigenvalues --    0.00248   0.00717   0.01530   0.01816   0.02843
 Alpha virt. eigenvalues --    0.03631   0.04452   0.04724   0.05114   0.05957
 Alpha virt. eigenvalues --    0.06101   0.07114   0.07226   0.08158   0.08643
 Alpha virt. eigenvalues --    0.08854   0.09243   0.09649   0.10376   0.11372
 Alpha virt. eigenvalues --    0.11620   0.12286   0.12291   0.12959   0.13247
 Alpha virt. eigenvalues --    0.13429   0.14122   0.14396   0.15062   0.15716
 Alpha virt. eigenvalues --    0.15899   0.16368   0.16880   0.17292   0.17606
 Alpha virt. eigenvalues --    0.17837   0.18243   0.18754   0.19098   0.19229
 Alpha virt. eigenvalues --    0.19614   0.20323   0.20419   0.20911   0.21525
 Alpha virt. eigenvalues --    0.21965   0.22340   0.22695   0.22762   0.23029
 Alpha virt. eigenvalues --    0.23551   0.23811   0.25144   0.25433   0.26012
 Alpha virt. eigenvalues --    0.26550   0.27064   0.27994   0.28437   0.28931
 Alpha virt. eigenvalues --    0.29603   0.30199   0.30688   0.31263   0.32458
 Alpha virt. eigenvalues --    0.33281   0.33867   0.35088   0.35450   0.36824
 Alpha virt. eigenvalues --    0.37181   0.39647   0.41491   0.42589   0.44364
 Alpha virt. eigenvalues --    0.44799   0.46033   0.47413   0.47444   0.49387
 Alpha virt. eigenvalues --    0.50965   0.51663   0.52049   0.52592   0.53127
 Alpha virt. eigenvalues --    0.53804   0.54108   0.54135   0.55571   0.55999
 Alpha virt. eigenvalues --    0.56846   0.57861   0.57902   0.58860   0.59025
 Alpha virt. eigenvalues --    0.60097   0.61901   0.61981   0.63004   0.63617
 Alpha virt. eigenvalues --    0.64740   0.66142   0.66282   0.67291   0.67943
 Alpha virt. eigenvalues --    0.68856   0.69291   0.70001   0.70282   0.71023
 Alpha virt. eigenvalues --    0.73703   0.76159   0.77369   0.79824   0.80791
 Alpha virt. eigenvalues --    0.81288   0.81586   0.82001   0.82661   0.83549
 Alpha virt. eigenvalues --    0.84738   0.84990   0.86510   0.87355   0.87706
 Alpha virt. eigenvalues --    0.87808   0.89019   0.89848   0.90095   0.90722
 Alpha virt. eigenvalues --    0.91176   0.92457   0.95156   0.95405   0.96410
 Alpha virt. eigenvalues --    0.96643   0.97457   0.98402   0.99327   1.00779
 Alpha virt. eigenvalues --    1.00797   1.01520   1.01851   1.05462   1.07203
 Alpha virt. eigenvalues --    1.08251   1.08864   1.09714   1.10900   1.11071
 Alpha virt. eigenvalues --    1.13409   1.13720   1.15930   1.22739   1.23548
 Alpha virt. eigenvalues --    1.27358   1.27590   1.28649   1.30687   1.33569
 Alpha virt. eigenvalues --    1.36148   1.36337   1.45337   1.46259   1.47489
 Alpha virt. eigenvalues --    1.48153   1.50721   1.51624   1.53987   1.54858
 Alpha virt. eigenvalues --    1.55069   1.55842   1.57339   1.59176   1.60575
 Alpha virt. eigenvalues --    1.62174   1.62630   1.65304   1.66937   1.67477
 Alpha virt. eigenvalues --    1.69808   1.73303   1.73408   1.73874   1.76018
 Alpha virt. eigenvalues --    1.77074   1.80791   1.84055   1.84635   1.85338
 Alpha virt. eigenvalues --    1.88841   1.89150   1.89874   1.90991   1.91271
 Alpha virt. eigenvalues --    1.92577   1.94876   1.95053   1.96148   1.98672
 Alpha virt. eigenvalues --    1.99250   2.00068   2.01099   2.02260   2.03438
 Alpha virt. eigenvalues --    2.05355   2.07786   2.08709   2.11716   2.20534
 Alpha virt. eigenvalues --    2.21131   2.24202   2.27296   2.27475   2.28548
 Alpha virt. eigenvalues --    2.29810   2.33522   2.35316   2.36738   2.36784
 Alpha virt. eigenvalues --    2.38414   2.41270   2.43258   2.44635   2.49901
 Alpha virt. eigenvalues --    2.51800   2.53683   2.56433   2.56875   2.62284
 Alpha virt. eigenvalues --    2.62506   2.65038   2.65856   2.68391   2.69590
 Alpha virt. eigenvalues --    2.70273   2.72399   2.73225   2.74221   2.74334
 Alpha virt. eigenvalues --    2.74603   2.75679   2.76446   2.78963   2.79874
 Alpha virt. eigenvalues --    2.80115   2.82370   2.82715   2.84803   2.85059
 Alpha virt. eigenvalues --    2.86679   2.87649   2.92327   2.94278   2.98801
 Alpha virt. eigenvalues --    3.06307   3.07556   3.10038   3.15562   3.16298
 Alpha virt. eigenvalues --    3.20658   3.23181   3.24384   3.33184   3.35321
 Alpha virt. eigenvalues --    3.37806   3.38791   3.51330   3.52579   3.54294
 Alpha virt. eigenvalues --    3.59394   3.62223   3.71265   3.78701   3.87296
 Alpha virt. eigenvalues --    4.03421   4.04048   4.08232   4.12388   4.17692
 Alpha virt. eigenvalues --    4.21327   4.48273   4.80868   4.84464   9.78539
 Alpha virt. eigenvalues --    9.88481  23.48630  23.62688  23.88344  23.90307
 Alpha virt. eigenvalues --   23.92001  23.95633  24.01694  24.04382  24.05437
 Alpha virt. eigenvalues --   24.07487  24.14405  24.15487  25.82066  25.85843
 Alpha virt. eigenvalues --   26.14170  26.60900  26.66240  26.79894 215.77764
 Alpha virt. eigenvalues --  215.90910
          Condensed to atoms (all electrons):
               1          2          3          4          5          6
     1  C   14.917510  -6.263891   1.106999  -1.966128   1.156128  -2.910116
     2  C   -6.263891  25.219158  -8.749974  -1.108207  -0.788719  -1.207952
     3  C    1.106999  -8.749974  15.128423   1.149264   0.253851  -0.696431
     4  C   -1.966128  -1.108207   1.149264   7.155973   0.357082   0.777650
     5  C    1.156128  -0.788719   0.253851   0.357082   9.847741  -2.903032
     6  C   -2.910116  -1.207952  -0.696431   0.777650  -2.903032  14.457076
     7  C    4.646706  -1.387463  -2.596483  -0.805341  -0.603526  -1.062719
     8  C   -2.284366   4.639873  -0.011167   0.206321  -0.154101  -3.202159
     9  C   -1.551862   0.511591   1.517888   0.063363  -0.142138  -1.491091
    10  C   -0.533109   0.699067   0.323833   0.048919  -0.119006   0.116831
    11  C   -0.568593  -0.699639  -0.091970  -0.017770  -0.027341   0.060470
    12  C    0.379447  -4.792711  -0.523353  -0.078973  -0.592824   3.179942
    13  H    0.031803   0.024277   0.363554  -0.033398  -0.030955  -0.000940
    14  H    0.038777  -0.012951   0.005170   0.354584   0.001168  -0.040329
    15  H    0.031772  -0.007339  -0.026942   0.010026   0.351832  -0.024544
    16  H    0.043736  -0.063023  -0.008693  -0.002534  -0.126328   0.371288
    17  H   -0.017619   0.028400   0.203099   0.023599  -0.010260   0.001725
    18  H    0.008148  -0.002842  -0.000264  -0.000017   0.000433   0.003893
    19  H   -0.000997  -0.000746   0.000479   0.000050   0.000177   0.006829
    20  H    0.060455   0.017355   0.006692  -0.005348   0.031071  -0.016834
    21  Cl  -0.193176  -0.307106  -0.904728   0.017857  -0.050901   0.682995
    22  Cl  -0.153572  -0.027986  -0.004968  -0.004732  -0.001882  -0.090269
               7          8          9         10         11         12
     1  C    4.646706  -2.284366  -1.551862  -0.533109  -0.568593   0.379447
     2  C   -1.387463   4.639873   0.511591   0.699067  -0.699639  -4.792711
     3  C   -2.596483  -0.011167   1.517888   0.323833  -0.091970  -0.523353
     4  C   -0.805341   0.206321   0.063363   0.048919  -0.017770  -0.078973
     5  C   -0.603526  -0.154101  -0.142138  -0.119006  -0.027341  -0.592824
     6  C   -1.062719  -3.202159  -1.491091   0.116831   0.060470   3.179942
     7  C   14.346712  -0.647411  -2.332410  -1.625729  -1.808718  -0.373171
     8  C   -0.647411  15.408467   0.781229  -2.674637  -0.868802  -3.961378
     9  C   -2.332410   0.781229  15.307937  -2.942633  -2.353780  -0.728294
    10  C   -1.625729  -2.674637  -2.942633  11.606582   2.295021  -1.118056
    11  C   -1.808718  -0.868802  -2.353780   2.295021   8.383565   1.568107
    12  C   -0.373171  -3.961378  -0.728294  -1.118056   1.568107  12.773247
    13  H    0.004658   0.007032  -0.000163   0.000157  -0.000180  -0.001399
    14  H    0.000035  -0.000866   0.000011  -0.000014   0.000227   0.002290
    15  H   -0.000085  -0.002226  -0.000416   0.000165   0.001563   0.014829
    16  H    0.016998  -0.002100   0.001939   0.000431   0.014989   0.076448
    17  H   -0.228935   0.233407   0.151880   0.122182  -0.018757  -0.036254
    18  H    0.041585   0.030922  -0.002469   0.346978  -0.080201   0.005055
    19  H    0.032221  -0.029107  -0.008202   0.006939   0.410922  -0.068865
    20  H    0.060920   0.003120   0.004801  -0.012881  -0.111797   0.282631
    21  Cl   0.728216  -0.761492  -1.068046  -0.019873   0.072265   0.300147
    22  Cl  -0.399379   0.389719  -0.513929  -0.163810   0.168682   0.066967
              13         14         15         16         17         18
     1  C    0.031803   0.038777   0.031772   0.043736  -0.017619   0.008148
     2  C    0.024277  -0.012951  -0.007339  -0.063023   0.028400  -0.002842
     3  C    0.363554   0.005170  -0.026942  -0.008693   0.203099  -0.000264
     4  C   -0.033398   0.354584   0.010026  -0.002534   0.023599  -0.000017
     5  C   -0.030955   0.001168   0.351832  -0.126328  -0.010260   0.000433
     6  C   -0.000940  -0.040329  -0.024544   0.371288   0.001725   0.003893
     7  C    0.004658   0.000035  -0.000085   0.016998  -0.228935   0.041585
     8  C    0.007032  -0.000866  -0.002226  -0.002100   0.233407   0.030922
     9  C   -0.000163   0.000011  -0.000416   0.001939   0.151880  -0.002469
    10  C    0.000157  -0.000014   0.000165   0.000431   0.122182   0.346978
    11  C   -0.000180   0.000227   0.001563   0.014989  -0.018757  -0.080201
    12  C   -0.001399   0.002290   0.014829   0.076448  -0.036254   0.005055
    13  H    0.513096  -0.007527  -0.000239   0.000079   0.000008  -0.000000
    14  H   -0.007527   0.530095  -0.007401  -0.000292  -0.000004  -0.000000
    15  H   -0.000239  -0.007401   0.534121  -0.007041   0.000001  -0.000000
    16  H    0.000079  -0.000292  -0.007041   0.555160  -0.000082  -0.000002
    17  H    0.000008  -0.000004   0.000001  -0.000082   0.680581  -0.000596
    18  H   -0.000000  -0.000000  -0.000000  -0.000002  -0.000596   0.520794
    19  H    0.000000  -0.000000   0.000000  -0.000002   0.000124  -0.007483
    20  H    0.000001  -0.000001   0.000002   0.001880  -0.000121  -0.000243
    21  Cl  -0.018032   0.002458   0.000607  -0.000450  -0.246125   0.000661
    22  Cl  -0.000003   0.000001  -0.000001   0.000070  -0.033055  -0.005379
              19         20         21         22
     1  C   -0.000997   0.060455  -0.193176  -0.153572
     2  C   -0.000746   0.017355  -0.307106  -0.027986
     3  C    0.000479   0.006692  -0.904728  -0.004968
     4  C    0.000050  -0.005348   0.017857  -0.004732
     5  C    0.000177   0.031071  -0.050901  -0.001882
     6  C    0.006829  -0.016834   0.682995  -0.090269
     7  C    0.032221   0.060920   0.728216  -0.399379
     8  C   -0.029107   0.003120  -0.761492   0.389719
     9  C   -0.008202   0.004801  -1.068046  -0.513929
    10  C    0.006939  -0.012881  -0.019873  -0.163810
    11  C    0.410922  -0.111797   0.072265   0.168682
    12  C   -0.068865   0.282631   0.300147   0.066967
    13  H    0.000000   0.000001  -0.018032  -0.000003
    14  H   -0.000000  -0.000001   0.002458   0.000001
    15  H    0.000000   0.000002   0.000607  -0.000001
    16  H   -0.000002   0.001880  -0.000450   0.000070
    17  H    0.000124  -0.000121  -0.246125  -0.033055
    18  H   -0.007483  -0.000243   0.000661  -0.005379
    19  H    0.535196  -0.007144  -0.000191  -0.000264
    20  H   -0.007144   0.568193  -0.000468   0.000173
    21  Cl  -0.000191  -0.000468  18.169107  -0.049399
    22  Cl  -0.000264   0.000173  -0.049399  17.429600
 Mulliken charges:
               1
     1  C    0.021949
     2  C    0.280830
     3  C   -0.444278
     4  C   -0.142240
     5  C   -0.448471
     6  C   -0.012281
     7  C   -0.006682
     8  C   -1.100276
     9  C    0.794795
    10  C   -0.357358
    11  C   -0.328265
    12  C   -0.373830
    13  H    0.148170
    14  H    0.134570
    15  H    0.131316
    16  H    0.127527
    17  H    0.146802
    18  H    0.141027
    19  H    0.130064
    20  H    0.117543
    21  Cl   0.645672
    22  Cl   0.393416
 Sum of Mulliken charges =  -0.00000
 Mulliken charges with hydrogens summed into heavy atoms:
               1
     1  C    0.021949
     2  C    0.280830
     3  C   -0.296108
     4  C   -0.007671
     5  C   -0.317155
     6  C    0.115246
     7  C   -0.006682
     8  C   -0.953474
     9  C    0.794795
    10  C   -0.216330
    11  C   -0.198201
    12  C   -0.256287
    21  Cl   0.645672
    22  Cl   0.393416
 Electronic spatial extent (au):  <R**2>=           3764.7617
 Charge=             -0.0000 electrons
 Dipole moment (field-independent basis, Debye):
    X=              2.7314    Y=              2.0407    Z=              0.0000  Tot=              3.4095
 Quadrupole moment (field-independent basis, Debye-Ang):
   XX=            -87.3262   YY=            -87.4326   ZZ=           -101.0988
   XY=             -2.8046   XZ=             -0.0000   YZ=              0.0000
 Traceless Quadrupole moment (field-independent basis, Debye-Ang):
   XX=              4.6263   YY=              4.5199   ZZ=             -9.1463
   XY=             -2.8046   XZ=             -0.0000   YZ=              0.0000
 Octapole moment (field-independent basis, Debye-Ang**2):
  XXX=             46.6196  YYY=              6.4369  ZZZ=              0.0000  XYY=             -1.9853
  XXY=              9.1441  XXZ=              0.0001  XZZ=             -8.8550  YZZ=            -10.5997
  YYZ=              0.0001  XYZ=             -0.0001
 Hexadecapole moment (field-independent basis, Debye-Ang**3):
 XXXX=          -3438.0609 YYYY=          -1262.2530 ZZZZ=           -120.2013 XXXY=            -37.6611
 XXXZ=             -0.0001 YYYX=             14.2688 YYYZ=              0.0002 ZZZX=              0.0001
 ZZZY=             -0.0000 XXYY=           -763.0844 XXZZ=           -691.8731 YYZZ=           -264.8669
 XXYZ=              0.0000 YYXZ=             -0.0002 ZZXY=              8.5318
 N-N= 9.915356625494D+02 E-N=-5.242829060762D+03  KE= 1.378625173476D+03
 Calling FoFJK, ICntrl=      2127 FMM=F ISym2X=0 I1Cent= 0 IOpClX= 0 NMat=1 NMatS=1 NMatT=0.
 ***** Axes restored to original set *****
 -------------------------------------------------------------------
 Center     Atomic                   Forces (Hartrees/Bohr)
 Number     Number              X              Y              Z
 -------------------------------------------------------------------
      1        6          -0.018478501   -0.038394163   -0.001123054
      2        6          -0.005427799    0.017652562    0.005103633
      3        6          -0.009354276   -0.001595704    0.002782249
      4        6          -0.009313112   -0.016454772   -0.000022357
      5        6           0.004130759   -0.015702220   -0.004309856
      6        6           0.023210252    0.011859912   -0.005419290
      7        6           0.010765922    0.023136878    0.000798582
      8        6          -0.041021750   -0.033837580    0.007159825
      9        6          -0.014330112    0.018504150    0.008196331
     10        6           0.006260984    0.003765783   -0.001355419
     11        6           0.020546848    0.005247642   -0.005783609
     12        6           0.000189472   -0.018112488   -0.003464199
     13        1           0.008725386   -0.000821930   -0.003028974
     14        1           0.005772857    0.007370530   -0.000517634
     15        1          -0.004441303    0.008057098    0.002976453
     16        1          -0.005921178    0.001527431    0.002237570
     17        1          -0.039573481   -0.026940646    0.007977741
     18        1          -0.004834417   -0.008397406    0.000015577
     19        1          -0.008965279   -0.001032412    0.002759704
     20        1          -0.006138784    0.003965750    0.002767268
     21       17           0.088729787    0.058575265   -0.018231361
     22       17          -0.000532276    0.001626319    0.000480822
 -------------------------------------------------------------------
 Cartesian Forces:  Max     0.088729787 RMS     0.018750100

 GradGradGradGradGradGradGradGradGradGradGradGradGradGradGradGradGradGrad
 Berny optimization.
 FormGI is forming the generalized inverse of G from B-inverse, IUseBI=4.
 Internal  Forces:  Max     0.276897068 RMS     0.050368179
 Search for a local minimum.
 Step number   1 out of a maximum of  121
 All quantities printed in internal units (Hartrees-Bohrs-Radians)
 Mixed Optimization -- RFO/linear search
 Second derivative matrix not updated -- first step.
 ITU=  0
     Eigenvalues ---    0.00237   0.01506   0.01506   0.02070   0.02070
     Eigenvalues ---    0.02070   0.02070   0.02070   0.02070   0.02070
     Eigenvalues ---    0.02070   0.02070   0.02070   0.02070   0.02070
     Eigenvalues ---    0.02070   0.02070   0.02070   0.02070   0.16000
     Eigenvalues ---    0.16000   0.16000   0.16000   0.16000   0.16000
     Eigenvalues ---    0.16000   0.16000   0.22000   0.22000   0.22493
     Eigenvalues ---    0.23478   0.23493   0.24487   0.25000   0.25000
     Eigenvalues ---    0.25000   0.25000   0.28519   0.29539   0.29539
     Eigenvalues ---    0.37230   0.37230   0.37230   0.37230   0.37230
     Eigenvalues ---    0.37230   0.37230   0.37230   0.41364   0.41369
     Eigenvalues ---    0.41539   0.41554   0.45389   0.45389   0.45389
     Eigenvalues ---    0.45389   0.45389   0.45389   0.45389   0.45389
 RFO step:  Lambda=-4.15914282D-01 EMin= 2.36824243D-03
 Linear search not attempted -- first point.
 Maximum step size (   0.300) exceeded in Quadratic search.
    -- Step size scaled by   0.382
 Iteration  1 RMS(Cart)=  0.19378727 RMS(Int)=  0.00986726
 Iteration  2 RMS(Cart)=  0.03502642 RMS(Int)=  0.00030194
 Iteration  3 RMS(Cart)=  0.00055958 RMS(Int)=  0.00004632
 Iteration  4 RMS(Cart)=  0.00000019 RMS(Int)=  0.00004632
 Variable       Old X    -DE/DX   Delta X   Delta X   Delta X     New X
                                 (Linear)    (Quad)   (Total)
    R1        2.64826   0.12013   0.00000   0.05396   0.05404   2.70230
    R2        2.64826   0.01979   0.00000   0.00934   0.00944   2.65770
    R3        2.91018   0.06698   0.00000   0.03650   0.03650   2.94668
    R4        2.64826   0.00328   0.00000   0.00200   0.00197   2.65023
    R5        3.32592  -0.00421   0.00000  -0.00226  -0.00226   3.32366
    R6        2.64826  -0.03013   0.00000  -0.01388  -0.01398   2.63428
    R7        2.02201   0.00921   0.00000   0.00447   0.00447   2.02647
    R8        2.64826  -0.03921   0.00000  -0.01842  -0.01850   2.62976
    R9        2.02201   0.00928   0.00000   0.00450   0.00450   2.02650
   R10        2.64826  -0.02206   0.00000  -0.01025  -0.01022   2.63804
   R11        2.02201   0.00967   0.00000   0.00469   0.00469   2.02669
   R12        2.02201   0.00629   0.00000   0.00305   0.00305   2.02506
   R13        2.64826   0.01559   0.00000   0.00717   0.00721   2.65547
   R14        2.64826   0.01757   0.00000   0.00793   0.00797   2.65623
   R15        2.64826  -0.00419   0.00000  -0.00173  -0.00173   2.64653
   R16        2.02201  -0.04067   0.00000  -0.01971  -0.01971   2.00230
   R17        2.64826  -0.02553   0.00000  -0.01143  -0.01147   2.63679
   R18        3.32592  -0.00175   0.00000  -0.00094  -0.00094   3.32498
   R19        2.64826  -0.02623   0.00000  -0.01185  -0.01189   2.63638
   R20        2.02201   0.00969   0.00000   0.00470   0.00470   2.02670
   R21        2.64826  -0.01187   0.00000  -0.00532  -0.00532   2.64294
   R22        2.02201   0.00940   0.00000   0.00456   0.00456   2.02656
   R23        2.02201   0.00692   0.00000   0.00335   0.00335   2.02536
    A1        2.09440  -0.07793   0.00000  -0.04261  -0.04243   2.05197
    A2        2.09440   0.27690   0.00000   0.15780   0.15771   2.25210
    A3        2.09440  -0.19896   0.00000  -0.11519  -0.11528   1.97911
    A4        2.09440  -0.01279   0.00000  -0.00536  -0.00531   2.08909
    A5        2.09440   0.18565   0.00000   0.10551   0.10549   2.19988
    A6        2.09440  -0.17285   0.00000  -0.10015  -0.10018   1.99422
    A7        2.09440   0.03751   0.00000   0.02203   0.02190   2.11630
    A8        2.09440  -0.01980   0.00000  -0.01171  -0.01164   2.08275
    A9        2.09440  -0.01771   0.00000  -0.01032  -0.01026   2.08414
   A10        2.09440  -0.00640   0.00000  -0.00679  -0.00698   2.08742
   A11        2.09440   0.00184   0.00000   0.00249   0.00259   2.09698
   A12        2.09440   0.00456   0.00000   0.00430   0.00439   2.09879
   A13        2.09440   0.00155   0.00000  -0.00189  -0.00195   2.09245
   A14        2.09440  -0.00062   0.00000   0.00105   0.00108   2.09548
   A15        2.09440  -0.00094   0.00000   0.00084   0.00087   2.09526
   A16        2.09440   0.05806   0.00000   0.03463   0.03476   2.12915
   A17        2.09440  -0.02733   0.00000  -0.01618  -0.01625   2.07815
   A18        2.09440  -0.03074   0.00000  -0.01845  -0.01851   2.07588
   A19        2.09440   0.18908   0.00000   0.10820   0.10816   2.20255
   A20        2.09440  -0.12868   0.00000  -0.07410  -0.07414   2.02026
   A21        2.09440  -0.06040   0.00000  -0.03411  -0.03402   2.06037
   A22        2.09440   0.01717   0.00000   0.01073   0.01077   2.10517
   A23        2.09440   0.01820   0.00000   0.01240   0.01238   2.10677
   A24        2.09440  -0.03537   0.00000  -0.02313  -0.02315   2.07124
   A25        2.09440   0.02030   0.00000   0.01133   0.01129   2.10568
   A26        2.09440  -0.01064   0.00000  -0.00595  -0.00593   2.08847
   A27        2.09440  -0.00966   0.00000  -0.00538  -0.00536   2.08903
   A28        2.09440  -0.01761   0.00000  -0.01151  -0.01159   2.08280
   A29        2.09440   0.00873   0.00000   0.00570   0.00575   2.10014
   A30        2.09440   0.00888   0.00000   0.00580   0.00585   2.10024
   A31        2.09440   0.00368   0.00000   0.00143   0.00139   2.09578
   A32        2.09440  -0.00269   0.00000  -0.00128  -0.00126   2.09313
   A33        2.09440  -0.00098   0.00000  -0.00015  -0.00013   2.09427
   A34        2.09440   0.03687   0.00000   0.02212   0.02216   2.11656
   A35        2.09440  -0.01476   0.00000  -0.00862  -0.00864   2.08575
   A36        2.09440  -0.02211   0.00000  -0.01350  -0.01352   2.08088
    D1        0.00000  -0.00000   0.00000  -0.00000  -0.00000   0.00000
    D2        3.14159  -0.00000   0.00000  -0.00000  -0.00000   3.14159
    D3       -3.14159  -0.00000   0.00000  -0.00000  -0.00000  -3.14159
    D4       -0.00000  -0.00000   0.00000  -0.00000  -0.00000  -0.00000
    D5       -0.00000   0.00000   0.00000   0.00000   0.00000  -0.00000
    D6        3.14159   0.00000   0.00000   0.00000   0.00000   3.14159
    D7        3.14159  -0.00000   0.00000  -0.00000  -0.00000   3.14159
    D8        0.00000  -0.00000   0.00000  -0.00000  -0.00000  -0.00000
    D9       -0.00000  -0.00000   0.00000  -0.00000  -0.00000  -0.00000
   D10        3.14159  -0.00000   0.00000  -0.00000  -0.00000   3.14159
   D11        3.14159  -0.00000   0.00000  -0.00000  -0.00000   3.14159
   D12       -0.00000  -0.00000   0.00000  -0.00000  -0.00000  -0.00000
   D13        0.00000  -0.00000   0.00000   0.00000   0.00000   0.00000
   D14        3.14159   0.00000   0.00000   0.00000   0.00000   3.14159
   D15       -3.14159  -0.00000   0.00000  -0.00000  -0.00000  -3.14159
   D16        0.00000  -0.00000   0.00000  -0.00000  -0.00000   0.00000
   D17       -0.00000   0.00000   0.00000   0.00000   0.00000  -0.00000
   D18        3.14159   0.00000   0.00000  -0.00000  -0.00000   3.14159
   D19        3.14159  -0.00000   0.00000  -0.00000  -0.00000   3.14159
   D20        0.00000  -0.00000   0.00000  -0.00000  -0.00000   0.00000
   D21        0.00000  -0.00000   0.00000  -0.00000  -0.00000   0.00000
   D22       -3.14159  -0.00000   0.00000  -0.00000  -0.00000  -3.14159
   D23       -3.14159  -0.00000   0.00000  -0.00000  -0.00000  -3.14159
   D24        0.00000  -0.00000   0.00000  -0.00000  -0.00000   0.00000
   D25       -0.00000   0.00000   0.00000   0.00000   0.00000  -0.00000
   D26        3.14159   0.00000   0.00000   0.00000   0.00000   3.14159
   D27        3.14159   0.00000   0.00000   0.00000   0.00000   3.14159
   D28       -0.00000   0.00000   0.00000   0.00000   0.00000  -0.00000
   D29        3.14159  -0.00000   0.00000   0.00000   0.00000   3.14159
   D30        0.00000  -0.00000   0.00000  -0.00000  -0.00000   0.00000
   D31        0.00000  -0.00000   0.00000  -0.00000  -0.00000   0.00000
   D32       -3.14159  -0.00000   0.00000  -0.00000  -0.00000  -3.14159
   D33       -3.14159  -0.00000   0.00000  -0.00000  -0.00000  -3.14159
   D34        0.00000  -0.00000   0.00000  -0.00000  -0.00000   0.00000
   D35       -0.00000   0.00000   0.00000   0.00000   0.00000  -0.00000
   D36        3.14159   0.00000   0.00000   0.00000   0.00000   3.14159
   D37       -0.00000  -0.00000   0.00000  -0.00000  -0.00000  -0.00000
   D38        3.14159  -0.00000   0.00000  -0.00000  -0.00000   3.14159
   D39        3.14159   0.00000   0.00000   0.00000   0.00000   3.14159
   D40       -0.00000   0.00000   0.00000   0.00000   0.00000  -0.00000
   D41       -0.00000   0.00000   0.00000   0.00000   0.00000  -0.00000
   D42       -3.14159  -0.00000   0.00000  -0.00000  -0.00000  -3.14159
   D43        3.14159   0.00000   0.00000   0.00000   0.00000   3.14159
   D44        0.00000  -0.00000   0.00000  -0.00000  -0.00000   0.00000
   D45        0.00000   0.00000   0.00000   0.00000  -0.00000   0.00000
   D46       -3.14159  -0.00000   0.00000  -0.00000  -0.00000  -3.14159
   D47        3.14159   0.00000   0.00000   0.00000   0.00000   3.14159
   D48        0.00000  -0.00000   0.00000  -0.00000  -0.00000   0.00000
   D49        0.00000  -0.00000   0.00000  -0.00000  -0.00000   0.00000
   D50       -3.14159  -0.00000   0.00000  -0.00000  -0.00000  -3.14159
   D51        3.14159   0.00000   0.00000   0.00000   0.00000   3.14159
   D52       -0.00000  -0.00000   0.00000   0.00000   0.00000  -0.00000
         Item               Value     Threshold  Converged?
 Maximum Force            0.276897     0.000450     NO 
 RMS     Force            0.050368     0.000300     NO 
 Maximum Displacement     0.979373     0.001800     NO 
 RMS     Displacement     0.224170     0.001200     NO 
 Predicted change in Energy=-1.472533D-01
 GradGradGradGradGradGradGradGradGradGradGradGradGradGradGradGradGradGrad

                          Input orientation:                          
 ---------------------------------------------------------------------
 Center     Atomic      Atomic             Coordinates (Angstroms)
 Number     Number       Type             X           Y           Z
 ---------------------------------------------------------------------
      1          6           0       -2.935036   -2.260908   -0.392251
      2          6           0       -1.581320   -2.040277   -0.796802
      3          6           0       -1.038842   -0.748579   -0.732931
      4          6           0       -1.794871    0.331865   -0.280935
      5          6           0       -3.113455    0.130179    0.115598
      6          6           0       -3.669139   -1.149172    0.058396
      7          6           0       -3.750163   -3.590068   -0.373332
      8          6           0       -3.282579   -4.855965   -0.765128
      9          6           0       -4.119450   -5.977016   -0.699959
     10          6           0       -5.433142   -5.858433   -0.244882
     11          6           0       -5.910356   -4.607509    0.147276
     12          6           0       -5.075746   -3.487108    0.082730
     13          1           0       -0.023059   -0.589737   -1.037753
     14          1           0       -1.362138    1.312179   -0.239388
     15          1           0       -3.701845    0.956151    0.464569
     16          1           0       -4.685895   -1.287178    0.367452
     17          1           0       -2.290582   -4.981745   -1.115569
     18          1           0       -6.069603   -6.720324   -0.197064
     19          1           0       -6.918454   -4.505510    0.498561
     20          1           0       -5.456504   -2.532704    0.387421
     21         17           0       -0.467124   -3.263316   -1.393575
     22         17           0       -3.507872   -7.550186   -1.196904
 ---------------------------------------------------------------------
                    Distance matrix (angstroms):
                    1          2          3          4          5
     1  C    0.000000
     2  C    1.429995   0.000000
     3  C    2.449235   1.402443   0.000000
     4  C    2.834579   2.436962   1.394002   0.000000
     5  C    2.450926   2.809055   2.407537   1.391611   0.000000
     6  C    1.406394   2.425782   2.775812   2.412778   1.395992
     7  C    1.559313   2.699085   3.943936   4.383294   3.805876
     8  C    2.644645   3.289891   4.680386   5.418607   5.066153
     9  C    3.912414   4.685018   6.068589   6.736559   6.242995
    10  C    4.382287   5.451556   6.757120   7.180398   6.432291
    11  C    3.827552   5.120792   6.276763   6.443446   5.501758
    12  C    2.512332   3.883028   4.945850   5.047866   4.115389
    13  H    3.418932   2.142499   1.072363   2.135753   3.376248
    14  H    3.906958   3.405542   2.143555   1.072380   2.142487
    15  H    3.416372   3.881529   3.381079   2.140574   1.072480
    16  H    2.142616   3.400152   3.847327   3.376348   2.131876
    17  H    2.888160   3.042515   4.430909   5.401555   5.322091
    18  H    5.454356   6.512081   7.826713   8.247044   7.467660
    19  H    4.658261   6.019994   7.085261   7.089352   6.009516
    20  H    2.653216   4.081901   4.894284   4.696808   3.557345
    21  Cl   2.845710   1.758805   2.662182   3.990766   4.560316
    22  Cl   5.380713   5.850707   7.250740   8.117888   7.801681
                    6          7          8          9         10
     6  C    0.000000
     7  C    2.480107   0.000000
     8  C    3.816796   1.405216   0.000000
     9  C    4.907745   2.437330   1.400484   0.000000
    10  C    5.037939   2.827436   2.429098   1.395329   0.000000
    11  C    4.122020   2.443901   2.792745   2.408465   1.395110
    12  C    2.728568   1.405619   2.409996   2.779702   2.420381
    13  H    3.848169   4.830605   5.375825   6.776230   7.593208
    14  H    3.386617   5.454598   6.481551   7.806872   8.245652
    15  H    2.144395   4.623042   5.955554   7.042678   7.066772
    16  H    1.071613   2.593773   3.998534   4.843016   4.672227
    17  H    4.238777   2.148966   1.059570   2.123218   3.376739
    18  H    6.071674   3.899919   3.400887   2.146743   1.072485
    19  H    4.692206   3.411201   3.865140   3.381745   2.142255
    20  H    2.284095   2.146710   3.384059   3.851414   3.385384
    21  Cl   4.102527   3.453405   3.295188   4.602690   5.719743
    22  Cl   6.524934   4.052099   2.737885   1.759502   2.734052
                   11         12         13         14         15
    11  C    0.000000
    12  C    1.398584   0.000000
    13  H    7.225445   5.931264   0.000000
    14  H    7.475192   6.076825   2.459228   0.000000
    15  H    5.994372   4.666471   4.263826   2.469117   0.000000
    16  H    3.545755   2.252275   4.919661   4.262895   2.451593
    17  H    3.851960   3.380385   4.943425   6.422085   6.304530
    18  H    2.146606   3.394071   8.651679   9.310377   8.060539
    19  H    1.072411   2.146073   8.077128   8.078534   6.338569
    20  H    2.137397   1.071774   5.943783   5.651534   3.906006
    21  Cl   5.814624   4.844477   2.733464   4.802953   5.632053
    22  Cl   4.029653   4.539196   7.785698   9.168562   8.669249
                   16         17         18         19         20
    16  H    0.000000
    17  H    4.646149   0.000000
    18  H    5.634927   4.259966   0.000000
    19  H    3.919077   4.924369   2.471809   0.000000
    20  H    1.464777   4.275493   4.272432   2.457969   0.000000
    21  Cl   4.980398   2.520968   6.691062   6.836876   5.347864
    22  Cl   6.562029   2.843466   2.872424   4.876138   5.610916
                   21         22
    21  Cl   0.000000
    22  Cl   5.259475   0.000000
 Stoichiometry    C12H8Cl2
 Framework group  C1[X(C12H8Cl2)]
 Deg. of freedom    60
 Full point group                 C1      NOp   1
 Largest Abelian subgroup         C1      NOp   1
 Largest concise Abelian subgroup C1      NOp   1
                         Standard orientation:                         
 ---------------------------------------------------------------------
 Center     Atomic      Atomic             Coordinates (Angstroms)
 Number     Number       Type             X           Y           Z
 ---------------------------------------------------------------------
      1          6           0        1.260251    0.423756   -0.000001
      2          6           0        1.969789   -0.817793   -0.000001
      3          6           0        3.372231   -0.816523    0.000000
      4          6           0        4.094425    0.375818    0.000000
      5          6           0        3.415583    1.590624   -0.000002
      6          6           0        2.019692    1.607476   -0.000003
      7          6           0       -0.278618    0.675434   -0.000001
      8          6           0       -1.280638   -0.309750   -0.000002
      9          6           0       -2.634232    0.049609   -0.000001
     10          6           0       -3.013652    1.392361    0.000002
     11          6           0       -2.029133    2.380823    0.000003
     12          6           0       -0.676986    2.023421    0.000002
     13          1           0        3.898408   -1.750922    0.000001
     14          1           0        5.166623    0.356075    0.000001
     15          1           0        3.963795    2.512403   -0.000004
     16          1           0        1.512513    2.551470   -0.000004
     17          1           0       -1.027800   -1.338711   -0.000002
     18          1           0       -4.051738    1.661807    0.000005
     19          1           0       -2.310069    3.415781    0.000008
     20          1           0        0.067952    2.793984    0.000004
     21         17           0        1.248582   -2.421930    0.000003
     22         17           0       -3.868109   -1.204742   -0.000002
 ---------------------------------------------------------------------
 Rotational constants (GHZ):           0.9650570           0.3323424           0.2472094
 Standard basis: 6-311+G(d,p) (5D, 7F)
 There are   386 symmetry adapted cartesian basis functions of A   symmetry.
 There are   372 symmetry adapted basis functions of A   symmetry.
   372 basis functions,   602 primitive gaussians,   386 cartesian basis functions
    57 alpha electrons       57 beta electrons
       nuclear repulsion energy       968.0735881637 Hartrees.
 NAtoms=   22 NActive=   22 NUniq=   22 SFac= 1.00D+00 NAtFMM=   60 NAOKFM=F Big=F
 Integral buffers will be    131072 words long.
 Raffenetti 2 integral format.
 Two-electron integral symmetry is turned on.
 One-electron integrals computed using PRISM.
 NBasis=   372 RedAO= T EigKep=  1.09D-06  NBF=   372
 NBsUse=   368 1.00D-06 EigRej=  8.61D-07 NBFU=   368
 Initial guess from the checkpoint file:  "/scratch/pkc/Gau-2814.chk"
 B after Tr=    -0.000000    0.000000   -0.000000
         Rot=    0.999351   -0.000000   -0.000000   -0.036014 Ang=  -4.13 deg.
 ExpMin= 4.38D-02 ExpMax= 1.06D+05 ExpMxC= 3.62D+03 IAcc=3 IRadAn=         5 AccDes= 0.00D+00
 Harris functional with IExCor=  402 and IRadAn=       5 diagonalized for initial guess.
 HarFok:  IExCor=  402 AccDes= 0.00D+00 IRadAn=         5 IDoV= 1 UseB2=F ITyADJ=14
 ICtDFT=  3500011 ScaDFX=  1.000000  1.000000  1.000000  1.000000
 FoFCou: FMM=F IPFlag=           0 FMFlag=      100000 FMFlg1=           0
         NFxFlg=           0 DoJE=T BraDBF=F KetDBF=T FulRan=T
         wScrn=  0.000000 ICntrl=       500 IOpCl=  0 I1Cent=   200000004 NGrid=           0
         NMat0=    1 NMatS0=      1 NMatT0=    0 NMatD0=    1 NMtDS0=    0 NMtDT0=    0
 Petite list used in FoFCou.
 Requested convergence on RMS density matrix=1.00D-08 within  32 cycles.
 Requested convergence on MAX density matrix=1.00D-06.
 Requested convergence on             energy=1.00D-06.
 No special actions if energy rises.
 SCF Done:  E(RB3LYP) =  -1382.64213890     A.U. after   16 cycles
            NFock= 16  Conv=0.59D-08     -V/T= 2.0031
 QCSCF skips out because SCF is already converged.
 Calling FoFJK, ICntrl=      2127 FMM=F ISym2X=0 I1Cent= 0 IOpClX= 0 NMat=1 NMatS=1 NMatT=0.
 ***** Axes restored to original set *****
 -------------------------------------------------------------------
 Center     Atomic                   Forces (Hartrees/Bohr)
 Number     Number              X              Y              Z
 -------------------------------------------------------------------
      1        6          -0.007207869   -0.027767737   -0.002840484
      2        6          -0.014816528    0.011880908    0.007112835
      3        6          -0.009937095   -0.001227312    0.003043436
      4        6          -0.003291393   -0.010762398   -0.000937145
      5        6           0.002124166   -0.011029083   -0.002771123
      6        6           0.022856534    0.017568356   -0.004230699
      7        6           0.010626400    0.020076035    0.000269721
      8        6          -0.010682624   -0.000163910    0.003488754
      9        6          -0.003784539    0.012160839    0.003530700
     10        6           0.004295189    0.001575934   -0.001119060
     11        6           0.017402695    0.003956643   -0.004990208
     12        6          -0.005292256   -0.020865024   -0.002175133
     13        1           0.007006211   -0.000608822   -0.002422561
     14        1           0.004281966    0.006668662   -0.000158268
     15        1          -0.004933736    0.005724216    0.002700550
     16        1           0.003405356    0.009890367    0.000735467
     17        1           0.012878166   -0.001628264   -0.004548706
     18        1          -0.003714293   -0.006383212    0.000024822
     19        1          -0.007297607    0.000424935    0.002483981
     20        1          -0.009230647   -0.007926042    0.001552570
     21       17          -0.004381268   -0.003805890    0.000728598
     22       17          -0.000306827    0.002240799    0.000521954
 -------------------------------------------------------------------
 Cartesian Forces:  Max     0.027767737 RMS     0.008615354

 GradGradGradGradGradGradGradGradGradGradGradGradGradGradGradGradGradGrad
 Berny optimization.
 Using GEDIIS/GDIIS optimizer.
 FormGI is forming the generalized inverse of G from B-inverse, IUseBI=4.
 Internal  Forces:  Max     0.063560202 RMS     0.011566172
 Search for a local minimum.
 Step number   2 out of a maximum of  121
 All quantities printed in internal units (Hartrees-Bohrs-Radians)
 Mixed Optimization -- RFO/linear search
 Update second derivatives using D2CorX and points    1    2
 DE= -3.90D-02 DEPred=-1.47D-01 R= 2.65D-01
 Trust test= 2.65D-01 RLast= 3.00D-01 DXMaxT set to 3.00D-01
 ITU=  0  0
 Use linear search instead of GDIIS.
     Eigenvalues ---    0.00237   0.01478   0.01484   0.02070   0.02070
     Eigenvalues ---    0.02070   0.02070   0.02070   0.02070   0.02070
     Eigenvalues ---    0.02070   0.02070   0.02070   0.02070   0.02070
     Eigenvalues ---    0.02070   0.02070   0.02070   0.02070   0.15972
     Eigenvalues ---    0.16000   0.16000   0.16000   0.16000   0.16000
     Eigenvalues ---    0.16000   0.16034   0.21994   0.22000   0.22525
     Eigenvalues ---    0.23395   0.23493   0.24324   0.24882   0.25000
     Eigenvalues ---    0.25000   0.28451   0.29538   0.29539   0.37075
     Eigenvalues ---    0.37177   0.37230   0.37230   0.37230   0.37230
     Eigenvalues ---    0.37230   0.37230   0.40367   0.41262   0.41309
     Eigenvalues ---    0.41577   0.45045   0.45339   0.45389   0.45389
     Eigenvalues ---    0.45389   0.45389   0.45389   0.45389   2.09295
 RFO step:  Lambda=-1.40574051D-02 EMin= 2.36824243D-03
 Quartic linear search produced a step of -0.32392.
 Iteration  1 RMS(Cart)=  0.14908684 RMS(Int)=  0.00468123
 Iteration  2 RMS(Cart)=  0.00895179 RMS(Int)=  0.00006139
 Iteration  3 RMS(Cart)=  0.00003622 RMS(Int)=  0.00006042
 Iteration  4 RMS(Cart)=  0.00000000 RMS(Int)=  0.00006042
 Variable       Old X    -DE/DX   Delta X   Delta X   Delta X     New X
                                 (Linear)    (Quad)   (Total)
    R1        2.70230  -0.01750  -0.01750   0.02120   0.00383   2.70613
    R2        2.65770   0.00928  -0.00306   0.02165   0.01868   2.67638
    R3        2.94668  -0.00553  -0.01182   0.01715   0.00533   2.95200
    R4        2.65023  -0.00723  -0.00064  -0.00934  -0.00994   2.64029
    R5        3.32366  -0.00038   0.00073  -0.00267  -0.00193   3.32172
    R6        2.63428  -0.00927   0.00453  -0.02561  -0.02117   2.61311
    R7        2.02647   0.00723  -0.00145   0.01643   0.01499   2.04146
    R8        2.62976  -0.00430   0.00599  -0.02178  -0.01592   2.61384
    R9        2.02650   0.00782  -0.00146   0.01748   0.01602   2.04253
   R10        2.63804  -0.00505   0.00331  -0.01558  -0.01231   2.62573
   R11        2.02669   0.00799  -0.00152   0.01795   0.01643   2.04312
   R12        2.02506  -0.00429  -0.00099  -0.00492  -0.00591   2.01915
   R13        2.65547  -0.00211  -0.00234   0.00348   0.00121   2.65668
   R14        2.65623   0.01047  -0.00258   0.02271   0.02015   2.67639
   R15        2.64653  -0.00862   0.00056  -0.01437  -0.01377   2.63276
   R16        2.00230   0.01375   0.00638   0.00734   0.01372   2.01602
   R17        2.63679  -0.01044   0.00372  -0.02571  -0.02202   2.61477
   R18        3.32498  -0.00226   0.00030  -0.00570  -0.00539   3.31959
   R19        2.63638  -0.00596   0.00385  -0.01919  -0.01541   2.62096
   R20        2.02670   0.00734  -0.00152   0.01680   0.01528   2.04198
   R21        2.64294  -0.00649   0.00172  -0.01357  -0.01188   2.63106
   R22        2.02656   0.00771  -0.00148   0.01734   0.01587   2.04243
   R23        2.02536  -0.00334  -0.00109  -0.00299  -0.00408   2.02128
    A1        2.05197  -0.01733   0.01374  -0.07832  -0.06434   1.98763
    A2        2.25210  -0.04623  -0.05108   0.00665  -0.04456   2.20755
    A3        1.97911   0.06356   0.03734   0.07167   0.10890   2.08801
    A4        2.08909   0.01654   0.00172   0.03626   0.03815   2.12724
    A5        2.19988  -0.01797  -0.03417   0.03834   0.00408   2.20397
    A6        1.99422   0.00143   0.03245  -0.07460  -0.04224   1.95198
    A7        2.11630  -0.00173  -0.00709   0.01040   0.00325   2.11955
    A8        2.08275  -0.00088   0.00377  -0.01247  -0.00867   2.07408
    A9        2.08414   0.00262   0.00332   0.00207   0.00542   2.08956
   A10        2.08742  -0.00455   0.00226  -0.01770  -0.01567   2.07174
   A11        2.09698   0.00095  -0.00084   0.00308   0.00236   2.09934
   A12        2.09879   0.00360  -0.00142   0.01462   0.01332   2.11210
   A13        2.09245   0.00126   0.00063   0.00439   0.00484   2.09729
   A14        2.09548   0.00009  -0.00035   0.00065   0.00039   2.09587
   A15        2.09526  -0.00134  -0.00028  -0.00504  -0.00523   2.09003
   A16        2.12915   0.00581  -0.01126   0.04497   0.03377   2.16292
   A17        2.07815   0.00678   0.00526   0.01589   0.02113   2.09927
   A18        2.07588  -0.01259   0.00600  -0.06086  -0.05489   2.02099
   A19        2.20255  -0.04479  -0.03503  -0.02983  -0.06492   2.13764
   A20        2.02026   0.05756   0.02401   0.08786   0.11183   2.13208
   A21        2.06037  -0.01277   0.01102  -0.05803  -0.04691   2.01347
   A22        2.10517   0.00596  -0.00349   0.02488   0.02150   2.12667
   A23        2.10677  -0.00298  -0.00401  -0.00008  -0.00414   2.10263
   A24        2.07124  -0.00298   0.00750  -0.02480  -0.01736   2.05388
   A25        2.10568   0.00609  -0.00366   0.02223   0.01858   2.12426
   A26        2.08847  -0.00394   0.00192  -0.01363  -0.01172   2.07675
   A27        2.08903  -0.00215   0.00174  -0.00859  -0.00686   2.08217
   A28        2.08280  -0.00652   0.00375  -0.03000  -0.02635   2.05646
   A29        2.10014   0.00239  -0.00186   0.01159   0.00978   2.10992
   A30        2.10024   0.00413  -0.00189   0.01841   0.01657   2.11681
   A31        2.09578   0.00519  -0.00045   0.01603   0.01547   2.11125
   A32        2.09313  -0.00291   0.00041  -0.00965  -0.00919   2.08395
   A33        2.09427  -0.00228   0.00004  -0.00638  -0.00628   2.08798
   A34        2.11656   0.00206  -0.00718   0.02490   0.01771   2.13427
   A35        2.08575   0.01092   0.00280   0.03563   0.03843   2.12418
   A36        2.08088  -0.01298   0.00438  -0.06052  -0.05614   2.02474
    D1        0.00000  -0.00000   0.00000   0.00000   0.00000   0.00000
    D2        3.14159   0.00000   0.00000   0.00000   0.00000  -3.14159
    D3       -3.14159  -0.00000   0.00000  -0.00000  -0.00000  -3.14159
    D4       -0.00000   0.00000   0.00000   0.00000   0.00000  -0.00000
    D5       -0.00000   0.00000  -0.00000  -0.00000  -0.00000  -0.00000
    D6        3.14159  -0.00000  -0.00000  -0.00000  -0.00000   3.14159
    D7        3.14159   0.00000   0.00000   0.00000   0.00000   3.14159
    D8       -0.00000  -0.00000   0.00000  -0.00000  -0.00000  -0.00000
    D9       -0.00000  -0.00000   0.00000  -0.00000  -0.00000  -0.00001
   D10        3.14159  -0.00000   0.00000  -0.00000  -0.00000   3.14159
   D11        3.14159  -0.00000   0.00000  -0.00000  -0.00000   3.14159
   D12       -0.00000  -0.00000   0.00000  -0.00000  -0.00000  -0.00001
   D13        0.00000  -0.00000  -0.00000  -0.00000  -0.00000  -0.00000
   D14        3.14159   0.00000  -0.00000   0.00000   0.00000   3.14159
   D15       -3.14159  -0.00000   0.00000  -0.00000  -0.00000  -3.14159
   D16        0.00000  -0.00000   0.00000  -0.00000  -0.00000   0.00000
   D17       -0.00000   0.00000  -0.00000   0.00000   0.00000  -0.00000
   D18        3.14159   0.00000   0.00000   0.00000   0.00000   3.14159
   D19        3.14159   0.00000   0.00000   0.00000   0.00000   3.14159
   D20        0.00000  -0.00000   0.00000  -0.00000  -0.00000   0.00000
   D21        0.00000  -0.00000   0.00000  -0.00000  -0.00000   0.00000
   D22       -3.14159  -0.00000   0.00000  -0.00000  -0.00000  -3.14159
   D23       -3.14159  -0.00000   0.00000  -0.00000  -0.00000  -3.14159
   D24        0.00000   0.00000   0.00000   0.00000   0.00000   0.00000
   D25       -0.00000   0.00000  -0.00000   0.00000   0.00000   0.00000
   D26        3.14159   0.00000  -0.00000   0.00000   0.00000  -3.14159
   D27        3.14159   0.00000  -0.00000   0.00000   0.00000   3.14159
   D28       -0.00000   0.00000  -0.00000   0.00000   0.00000  -0.00000
   D29        3.14159   0.00000  -0.00000   0.00000   0.00000   3.14159
   D30        0.00000   0.00000   0.00000  -0.00000  -0.00000   0.00000
   D31        0.00000   0.00000   0.00000   0.00000   0.00000   0.00000
   D32       -3.14159  -0.00000   0.00000  -0.00000  -0.00000  -3.14159
   D33       -3.14159   0.00000   0.00000  -0.00000  -0.00000  -3.14159
   D34        0.00000   0.00000   0.00000  -0.00000  -0.00000  -0.00000
   D35       -0.00000  -0.00000  -0.00000   0.00000  -0.00000  -0.00000
   D36        3.14159  -0.00000  -0.00000  -0.00000  -0.00000   3.14159
   D37       -0.00000  -0.00000   0.00000  -0.00000  -0.00000  -0.00000
   D38        3.14159  -0.00000   0.00000  -0.00000  -0.00000   3.14159
   D39        3.14159   0.00000  -0.00000   0.00000   0.00000   3.14159
   D40       -0.00000   0.00000  -0.00000   0.00000   0.00000  -0.00000
   D41       -0.00000  -0.00000  -0.00000  -0.00000  -0.00000  -0.00000
   D42       -3.14159  -0.00000   0.00000  -0.00000  -0.00000  -3.14159
   D43        3.14159   0.00000  -0.00000   0.00000   0.00000   3.14159
   D44        0.00000  -0.00000   0.00000  -0.00000  -0.00000   0.00000
   D45        0.00000   0.00000   0.00000   0.00000   0.00000   0.00000
   D46       -3.14159  -0.00000   0.00000  -0.00000  -0.00000  -3.14159
   D47        3.14159   0.00000  -0.00000   0.00000   0.00000   3.14159
   D48        0.00000  -0.00000   0.00000  -0.00000  -0.00000   0.00000
   D49        0.00000  -0.00000   0.00000  -0.00000  -0.00000   0.00000
   D50       -3.14159   0.00000   0.00000  -0.00000  -0.00000  -3.14159
   D51        3.14159   0.00000  -0.00000   0.00000   0.00000   3.14159
   D52       -0.00000   0.00000  -0.00000   0.00000   0.00000  -0.00000
         Item               Value     Threshold  Converged?
 Maximum Force            0.063560     0.000450     NO 
 RMS     Force            0.011566     0.000300     NO 
 Maximum Displacement     0.559225     0.001800     NO 
 RMS     Displacement     0.152790     0.001200     NO 
 Predicted change in Energy=-9.379586D-03
 GradGradGradGradGradGradGradGradGradGradGradGradGradGradGradGradGradGrad

                          Input orientation:                          
 ---------------------------------------------------------------------
 Center     Atomic      Atomic             Coordinates (Angstroms)
 Number     Number       Type             X           Y           Z
 ---------------------------------------------------------------------
      1          6           0       -3.042349   -2.203522   -0.346117
      2          6           0       -1.681611   -2.053027   -0.766152
      3          6           0       -1.035866   -0.814181   -0.746230
      4          6           0       -1.683554    0.330028   -0.317956
      5          6           0       -2.999352    0.232606    0.097240
      6          6           0       -3.647762   -0.996181    0.080085
      7          6           0       -3.866210   -3.530556   -0.323921
      8          6           0       -3.325268   -4.761876   -0.733394
      9          6           0       -4.072087   -5.937724   -0.708185
     10          6           0       -5.387135   -5.955026   -0.278180
     11          6           0       -5.949847   -4.755703    0.132457
     12          6           0       -5.213152   -3.574460    0.111597
     13          1           0       -0.008114   -0.757000   -1.074087
     14          1           0       -1.165944    1.278856   -0.310287
     15          1           0       -3.527210    1.113063    0.436499
     16          1           0       -4.662307   -0.991249    0.415254
     17          1           0       -2.317075   -4.822416   -1.076921
     18          1           0       -5.954131   -6.874783   -0.264117
     19          1           0       -6.975388   -4.739968    0.473288
     20          1           0       -5.725024   -2.696496    0.445131
     21         17           0       -0.627041   -3.330774   -1.353553
     22         17           0       -3.320751   -7.434972   -1.236920
 ---------------------------------------------------------------------
                    Distance matrix (angstroms):
                    1          2          3          4          5
     1  C    0.000000
     2  C    1.432022   0.000000
     3  C    2.473122   1.397183   0.000000
     4  C    2.875064   2.424836   1.382798   0.000000
     5  C    2.476516   2.775969   2.379597   1.383186   0.000000
     6  C    1.416279   2.387214   2.745527   2.403202   1.389477
[...]
     16          1           0        1.431063    2.436046   -0.923892
     17          1           0       -0.865152   -0.989434   -1.088936
     18          1           0       -4.028855    1.234147    0.762987
     19          1           0       -2.349674    2.716856    1.841324
     20          1           0        0.066859    2.344684    1.457861
     21         17           0        1.133190   -2.068967    0.976076
     22         17           0       -3.710470   -1.002831   -0.992028
 ---------------------------------------------------------------------
 Rotational constants (GHZ):           0.9764396           0.3241383           0.2801033

 **********************************************************************

            Population analysis using the SCF Density.

 **********************************************************************

 Orbital symmetries:
       Occupied  (A) (A) (A) (A) (A) (A) (A) (A) (A) (A) (A) (A)
                 (A) (A) (A) (A) (A) (A) (A) (A) (A) (A) (A) (A)
                 (A) (A) (A) (A) (A) (A) (A) (A) (A) (A) (A) (A)
                 (A) (A) (A) (A) (A) (A) (A) (A) (A) (A) (A) (A)
                 (A) (A) (A) (A) (A) (A) (A) (A) (A)
       Virtual   (A) (A) (A) (A) (A) (A) (A) (A) (A) (A) (A) (A)
                 (A) (A) (A) (A) (A) (A) (A) (A) (A) (A) (A) (A)
                 (A) (A) (A) (A) (A) (A) (A) (A) (A) (A) (A) (A)
                 (A) (A) (A) (A) (A) (A) (A) (A) (A) (A) (A) (A)
                 (A) (A) (A) (A) (A) (A) (A) (A) (A) (A) (A) (A)
                 (A) (A) (A) (A) (A) (A) (A) (A) (A) (A) (A) (A)
                 (A) (A) (A) (A) (A) (A) (A) (A) (A) (A) (A) (A)
                 (A) (A) (A) (A) (A) (A) (A) (A) (A) (A) (A) (A)
                 (A) (A) (A) (A) (A) (A) (A) (A) (A) (A) (A) (A)
                 (A) (A) (A) (A) (A) (A) (A) (A) (A) (A) (A) (A)
                 (A) (A) (A) (A) (A) (A) (A) (A) (A) (A) (A) (A)
                 (A) (A) (A) (A) (A) (A) (A) (A) (A) (A) (A) (A)
                 (A) (A) (A) (A) (A) (A) (A) (A) (A) (A) (A) (A)
                 (A) (A) (A) (A) (A) (A) (A) (A) (A) (A) (A) (A)
                 (A) (A) (A) (A) (A) (A) (A) (A) (A) (A) (A) (A)
                 (A) (A) (A) (A) (A) (A) (A) (A) (A) (A) (A) (A)
                 (A) (A) (A) (A) (A) (A) (A) (A) (A) (A) (A) (A)
                 (A) (A) (A) (A) (A) (A) (A) (A) (A) (A) (A) (A)
                 (A) (A) (A) (A) (A) (A) (A) (A) (A) (A) (A) (A)
                 (A) (A) (A) (A) (A) (A) (A) (A) (A) (A) (A) (A)
                 (A) (A) (A) (A) (A) (A) (A) (A) (A) (A) (A) (A)
                 (A) (A) (A) (A) (A) (A) (A) (A) (A) (A) (A) (A)
                 (A) (A) (A) (A) (A) (A) (A) (A) (A) (A) (A) (A)
                 (A) (A) (A) (A) (A) (A) (A) (A) (A) (A) (A) (A)
                 (A) (A) (A) (A) (A) (A) (A) (A) (A) (A) (A) (A)
                 (A) (A) (A) (A) (A) (A) (A) (A) (A) (A) (A) (A)
                 (A) (A)
 The electronic state is 1-A.
 Alpha  occ. eigenvalues -- -101.55790-101.55605 -10.25026 -10.24570 -10.21181
 Alpha  occ. eigenvalues --  -10.20770 -10.19754 -10.19648 -10.19589 -10.19515
 Alpha  occ. eigenvalues --  -10.19513 -10.19450 -10.19305 -10.19130  -9.47266
 Alpha  occ. eigenvalues --   -9.47062  -7.23724  -7.23520  -7.22755  -7.22705
 Alpha  occ. eigenvalues --   -7.22547  -7.22513  -0.91147  -0.89748  -0.85244
 Alpha  occ. eigenvalues --   -0.84591  -0.79751  -0.75901  -0.74907  -0.73756
 Alpha  occ. eigenvalues --   -0.65001  -0.63181  -0.61257  -0.59625  -0.54311
 Alpha  occ. eigenvalues --   -0.52059  -0.49660  -0.48373  -0.47949  -0.46314
 Alpha  occ. eigenvalues --   -0.44457  -0.44347  -0.44122  -0.41012  -0.40294
 Alpha  occ. eigenvalues --   -0.39634  -0.37851  -0.37207  -0.36814  -0.34464
 Alpha  occ. eigenvalues --   -0.34173  -0.32235  -0.31928  -0.28817  -0.26700
 Alpha  occ. eigenvalues --   -0.26024  -0.25258
 Alpha virt. eigenvalues --   -0.05015  -0.03768  -0.02800  -0.01636  -0.00444
 Alpha virt. eigenvalues --   -0.00117   0.01100   0.01383   0.01993   0.02684
 Alpha virt. eigenvalues --    0.02955   0.04075   0.04474   0.04878   0.05284
 Alpha virt. eigenvalues --    0.05492   0.06460   0.07183   0.07465   0.08411
 Alpha virt. eigenvalues --    0.08690   0.09475   0.10005   0.10235   0.10732
 Alpha virt. eigenvalues --    0.10980   0.11482   0.11913   0.12348   0.12894
 Alpha virt. eigenvalues --    0.13075   0.13682   0.13896   0.14123   0.14764
 Alpha virt. eigenvalues --    0.15448   0.15820   0.16213   0.16678   0.17079
 Alpha virt. eigenvalues --    0.17529   0.17801   0.18238   0.18871   0.19015
 Alpha virt. eigenvalues --    0.19241   0.19487   0.20222   0.20294   0.20865
 Alpha virt. eigenvalues --    0.21251   0.21551   0.21783   0.22219   0.22846
 Alpha virt. eigenvalues --    0.23018   0.23265   0.23934   0.24231   0.24545
 Alpha virt. eigenvalues --    0.25030   0.25671   0.26357   0.27007   0.27433
 Alpha virt. eigenvalues --    0.28132   0.28507   0.28706   0.28989   0.29105
 Alpha virt. eigenvalues --    0.29262   0.30178   0.30973   0.31513   0.31788
 Alpha virt. eigenvalues --    0.31904   0.33800   0.34403   0.35763   0.36169
 Alpha virt. eigenvalues --    0.42849   0.44006   0.45452   0.45794   0.46835
 Alpha virt. eigenvalues --    0.47131   0.48630   0.49178   0.50935   0.51389
 Alpha virt. eigenvalues --    0.51803   0.52980   0.53552   0.53982   0.55879
 Alpha virt. eigenvalues --    0.56175   0.56497   0.57348   0.57718   0.58232
 Alpha virt. eigenvalues --    0.58600   0.59946   0.60854   0.61995   0.62146
 Alpha virt. eigenvalues --    0.62769   0.63774   0.64771   0.66249   0.66895
 Alpha virt. eigenvalues --    0.67267   0.68463   0.68886   0.69289   0.69910
 Alpha virt. eigenvalues --    0.70277   0.70586   0.71325   0.71987   0.72879
 Alpha virt. eigenvalues --    0.73753   0.74666   0.76201   0.79078   0.81476
 Alpha virt. eigenvalues --    0.81955   0.82125   0.82176   0.83329   0.83891
 Alpha virt. eigenvalues --    0.85233   0.85832   0.86218   0.86571   0.86960
 Alpha virt. eigenvalues --    0.87716   0.89207   0.89692   0.90378   0.91252
 Alpha virt. eigenvalues --    0.91584   0.93325   0.94428   0.96031   0.96470
 Alpha virt. eigenvalues --    0.97231   0.98717   0.99371   1.00600   1.00751
 Alpha virt. eigenvalues --    1.02058   1.04189   1.05022   1.06240   1.07860
 Alpha virt. eigenvalues --    1.08469   1.10965   1.11985   1.12909   1.14837
 Alpha virt. eigenvalues --    1.18628   1.20743   1.24692   1.25919   1.28718
 Alpha virt. eigenvalues --    1.29413   1.30888   1.32553   1.35925   1.38973
 Alpha virt. eigenvalues --    1.44204   1.47250   1.48928   1.49478   1.50980
 Alpha virt. eigenvalues --    1.52378   1.53777   1.54966   1.55810   1.56822
 Alpha virt. eigenvalues --    1.57705   1.57814   1.61643   1.63157   1.64157
 Alpha virt. eigenvalues --    1.65233   1.67248   1.67888   1.68738   1.71598
 Alpha virt. eigenvalues --    1.72440   1.73461   1.75016   1.76997   1.78852
 Alpha virt. eigenvalues --    1.83637   1.84327   1.86930   1.88996   1.90227
 Alpha virt. eigenvalues --    1.90521   1.90826   1.91959   1.94019   1.94221
 Alpha virt. eigenvalues --    1.94979   1.95248   1.97697   1.98327   2.00023
 Alpha virt. eigenvalues --    2.00597   2.01781   2.02821   2.03406   2.06398
 Alpha virt. eigenvalues --    2.08538   2.11601   2.19227   2.19966   2.22586
 Alpha virt. eigenvalues --    2.27489   2.28654   2.30397   2.31357   2.32138
 Alpha virt. eigenvalues --    2.35597   2.38353   2.38776   2.39123   2.40947
 Alpha virt. eigenvalues --    2.42546   2.44652   2.48484   2.52530   2.53926
 Alpha virt. eigenvalues --    2.55905   2.56881   2.60205   2.64569   2.65205
 Alpha virt. eigenvalues --    2.67395   2.67830   2.68923   2.69987   2.71846
 Alpha virt. eigenvalues --    2.72972   2.74465   2.74904   2.75737   2.77596
 Alpha virt. eigenvalues --    2.78597   2.79091   2.79866   2.80489   2.81506
 Alpha virt. eigenvalues --    2.82789   2.84317   2.85146   2.86022   2.87942
 Alpha virt. eigenvalues --    2.89607   2.92745   2.99755   3.00858   3.07753
 Alpha virt. eigenvalues --    3.09413   3.15069   3.17159   3.19291   3.21649
 Alpha virt. eigenvalues --    3.23080   3.33752   3.35874   3.37104   3.39304
 Alpha virt. eigenvalues --    3.50078   3.51754   3.54161   3.59907   3.61755
 Alpha virt. eigenvalues --    3.74595   3.77217   3.86133   4.00054   4.02459
 Alpha virt. eigenvalues --    4.07040   4.11112   4.13303   4.14003   4.40376
 Alpha virt. eigenvalues --    4.81837   4.84342   9.78353   9.80993  23.48518
 Alpha virt. eigenvalues --   23.63579  23.90024  23.91078  23.92302  23.96674
 Alpha virt. eigenvalues --   24.02067  24.05598  24.07083  24.08721  24.16156
 Alpha virt. eigenvalues --   24.17565  25.83685  25.89348  26.13452  26.25101
 Alpha virt. eigenvalues --   26.60179  26.70681 215.77568 215.80741
          Condensed to atoms (all electrons):
               1          2          3          4          5          6
     1  C   32.847304 -11.504618  -4.888847  -2.895775  -0.325826  -0.490375
     2  C  -11.504618  34.335270  -6.061235  -0.066955  -2.794260  -7.750610
     3  C   -4.888847  -6.061235  21.882164  -0.304251   2.467322 -10.328421
     4  C   -2.895775  -0.066955  -0.304251   7.166665  -0.385152   2.872587
     5  C   -0.325826  -2.794260   2.467322  -0.385152   8.395739  -2.202001
     6  C   -0.490375  -7.750610 -10.328421   2.872587  -2.202001  30.516963
     7  C   -3.805897  -2.819295   4.129249  -0.647900   0.659261  -5.789879
     8  C  -10.100326   4.720115   1.036397   0.103799  -0.420777  -2.598229
     9  C    3.666613  -1.289439  -0.641651  -0.061361   0.170284   0.918564
    10  C    0.167892  -0.080310   0.019871   0.007734  -0.036292   0.066569
    11  C    0.130713   0.200851   0.065503  -0.008672   0.055327  -0.208410
    12  C    0.985941  -0.898971   0.449753  -0.030702   0.313739   0.549841
    13  H    0.102313  -0.011132   0.323121  -0.054788  -0.030228   0.021567
    14  H    0.030743  -0.054729   0.042241   0.334122   0.057307  -0.063641
    15  H   -0.012479   0.013687  -0.027602   0.017539   0.360387  -0.004412
    16  H   -0.009393  -0.027120   0.025907  -0.009796  -0.055493   0.315359
    17  H    0.022886   0.080664   0.002634   0.002567  -0.005606  -0.029448
    18  H    0.010026  -0.002471  -0.000174   0.000001   0.000007   0.000430
    19  H    0.011994   0.000100  -0.000332   0.000113  -0.000593  -0.000958
    20  H   -0.005450  -0.023664  -0.007158   0.006151  -0.008541   0.083409
    21  Cl   0.789243   0.117471  -1.402793   0.131095  -0.060247   0.866499
    22  Cl  -0.104688  -0.001043   0.021628  -0.001987   0.006751  -0.016914
               7          8          9         10         11         12
     1  C   -3.805897 -10.100326   3.666613   0.167892   0.130713   0.985941
     2  C   -2.819295   4.720115  -1.289439  -0.080310   0.200851  -0.898971
     3  C    4.129249   1.036397  -0.641651   0.019871   0.065503   0.449753
     4  C   -0.647900   0.103799  -0.061361   0.007734  -0.008672  -0.030702
     5  C    0.659261  -0.420777   0.170284  -0.036292   0.055327   0.313739
     6  C   -5.789879  -2.598229   0.918564   0.066569  -0.208410   0.549841
     7  C   22.721110   2.552328  -4.008427  -1.658201  -1.307039  -3.164068
     8  C    2.552328  34.593513  -4.665272  -7.569169  -1.385277  -9.584883
     9  C   -4.008427  -4.665272  17.136714  -1.744152  -0.726070  -2.745635
    10  C   -1.658201  -7.569169  -1.744152  14.792854   1.101475   1.424069
    11  C   -1.307039  -1.385277  -0.726070   1.101475   7.477518   0.533308
    12  C   -3.164068  -9.584883  -2.745635   1.424069   0.533308  18.344587
    13  H    0.005597  -0.000157  -0.000796   0.000157  -0.000345   0.000747
    14  H    0.004983  -0.000769  -0.000030  -0.000005  -0.000030  -0.000634
    15  H    0.002805   0.001555  -0.000506   0.000043  -0.000233  -0.002240
    16  H    0.043521  -0.017124  -0.025667   0.008670  -0.003208   0.099357
    17  H    0.003756   0.159111   0.029945   0.056518  -0.017936   0.055958
    18  H    0.041675   0.000684   0.073839   0.285025  -0.000442  -0.054937
    19  H    0.007055  -0.044895  -0.007868  -0.004146   0.374640   0.011608
    20  H    0.007497   0.009492  -0.000297  -0.006597  -0.038314   0.336344
    21  Cl  -1.256399  -0.511762   0.561399  -0.101374  -0.002096  -0.246010
    22  Cl  -0.310193   0.807806  -1.186557  -0.138520   0.124863   0.077947
              13         14         15         16         17         18
     1  C    0.102313   0.030743  -0.012479  -0.009393   0.022886   0.010026
     2  C   -0.011132  -0.054729   0.013687  -0.027120   0.080664  -0.002471
     3  C    0.323121   0.042241  -0.027602   0.025907   0.002634  -0.000174
     4  C   -0.054788   0.334122   0.017539  -0.009796   0.002567   0.000001
     5  C   -0.030228   0.057307   0.360387  -0.055493  -0.005606   0.000007
     6  C    0.021567  -0.063641  -0.004412   0.315359  -0.029448   0.000430
     7  C    0.005597   0.004983   0.002805   0.043521   0.003756   0.041675
     8  C   -0.000157  -0.000769   0.001555  -0.017124   0.159111   0.000684
     9  C   -0.000796  -0.000030  -0.000506  -0.025667   0.029945   0.073839
    10  C    0.000157  -0.000005   0.000043   0.008670   0.056518   0.285025
    11  C   -0.000345  -0.000030  -0.000233  -0.003208  -0.017936  -0.000442
    12  C    0.000747  -0.000634  -0.002240   0.099357   0.055958  -0.054937
    13  H    0.514159  -0.007924  -0.000216   0.000056   0.000005  -0.000000
    14  H   -0.007924   0.531190  -0.007672  -0.000286   0.000000  -0.000000
    15  H   -0.000216  -0.007672   0.533478  -0.007443   0.000003  -0.000000
    16  H    0.000056  -0.000286  -0.007443   0.531875  -0.000028  -0.000001
    17  H    0.000005   0.000000   0.000003  -0.000028   0.501028  -0.000255
    18  H   -0.000000  -0.000000  -0.000000  -0.000001  -0.000255   0.513942
    19  H    0.000000  -0.000000   0.000000   0.000020   0.000065  -0.008041
    20  H    0.000004  -0.000001   0.000017  -0.000353  -0.000179  -0.000194
    21  Cl  -0.011670   0.000451   0.001175  -0.002986  -0.003428   0.000259
    22  Cl  -0.000020  -0.000000   0.000000  -0.000050  -0.009625  -0.008225
              19         20         21         22
     1  C    0.011994  -0.005450   0.789243  -0.104688
     2  C    0.000100  -0.023664   0.117471  -0.001043
     3  C   -0.000332  -0.007158  -1.402793   0.021628
     4  C    0.000113   0.006151   0.131095  -0.001987
     5  C   -0.000593  -0.008541  -0.060247   0.006751
     6  C   -0.000958   0.083409   0.866499  -0.016914
     7  C    0.007055   0.007497  -1.256399  -0.310193
     8  C   -0.044895   0.009492  -0.511762   0.807806
     9  C   -0.007868  -0.000297   0.561399  -1.186557
    10  C   -0.004146  -0.006597  -0.101374  -0.138520
    11  C    0.374640  -0.038314  -0.002096   0.124863
    12  C    0.011608   0.336344  -0.246010   0.077947
    13  H    0.000000   0.000004  -0.011670  -0.000020
    14  H   -0.000000  -0.000001   0.000451  -0.000000
    15  H    0.000000   0.000017   0.001175   0.000000
    16  H    0.000020  -0.000353  -0.002986  -0.000050
    17  H    0.000065  -0.000179  -0.003428  -0.009625
    18  H   -0.008041  -0.000194   0.000259  -0.008225
    19  H    0.533801  -0.007318  -0.000136   0.000713
    20  H   -0.007318   0.530326  -0.001378   0.000358
    21  Cl  -0.000136  -0.001378  17.702968   0.002993
    22  Cl   0.000713   0.000358   0.002993  17.335313
 Mulliken charges:
               1
     1  C    1.378006
     2  C   -0.082306
     3  C   -0.803326
     4  C   -0.175036
     5  C   -0.161109
     6  C   -0.728488
     7  C    0.588462
     8  C   -1.086160
     9  C    0.546368
    10  C   -0.592112
    11  C   -0.366125
    12  C   -0.455118
    13  H    0.149550
    14  H    0.134684
    15  H    0.132112
    16  H    0.134181
    17  H    0.151366
    18  H    0.148852
    19  H    0.134177
    20  H    0.125846
    21  Cl   0.426726
    22  Cl   0.399449
 Sum of Mulliken charges =  -0.00000
 Mulliken charges with hydrogens summed into heavy atoms:
               1
     1  C    1.378006
     2  C   -0.082306
     3  C   -0.653776
     4  C   -0.040352
     5  C   -0.028996
     6  C   -0.594307
     7  C    0.588462
     8  C   -0.934794
     9  C    0.546368
    10  C   -0.443260
    11  C   -0.231948
    12  C   -0.329272
    21  Cl   0.426726
    22  Cl   0.399449
 Electronic spatial extent (au):  <R**2>=           3845.9101
 Charge=              0.0000 electrons
 Dipole moment (field-independent basis, Debye):
    X=              1.9705    Y=              2.3173    Z=              0.0583  Tot=              3.0424
 Quadrupole moment (field-independent basis, Debye-Ang):
   XX=            -88.1044   YY=            -91.6074   ZZ=            -97.4053
   XY=             -2.3239   XZ=             -5.8147   YZ=              2.0524
 Traceless Quadrupole moment (field-independent basis, Debye-Ang):
   XX=              4.2679   YY=              0.7650   ZZ=             -5.0329
   XY=             -2.3239   XZ=             -5.8147   YZ=              2.0524
 Octapole moment (field-independent basis, Debye-Ang**2):
  XXX=             37.6442  YYY=             -3.1191  ZZZ=              2.4207  XYY=             -1.1541
  XXY=              6.7973  XXZ=              0.3493  XZZ=             -7.5543  YZZ=              0.1266
  YYZ=              3.3506  XYZ=            -11.4968
 Hexadecapole moment (field-independent basis, Debye-Ang**3):
 XXXX=          -3493.6009 YYYY=          -1049.5335 ZZZZ=           -475.5504 XXXY=            -50.1654
 XXXZ=            -77.1069 YYYX=             18.0629 YYYZ=              2.0707 ZZZX=             26.8393
 ZZZY=              3.3632 XXYY=           -763.7955 XXZZ=           -716.1761 YYZZ=           -235.6326
 XXYZ=             -2.9423 YYXZ=            -19.9272 ZZXY=              6.0730
 N-N= 9.790843990389D+02 E-N=-5.217925832008D+03  KE= 1.378412778443D+03
 1\1\GINC-DAMODAR\FOpt\RB3LYP\6-311+G(d,p)\C12H8Cl2\PKC\14-Mar-2022\0\\
 # opt b3lyp/6-311+g(d,p) scf=xqc\\Title Card Required\\0,1\C,-3.064455
 352,-2.2229291915,-0.3286189995\C,-1.6730404537,-2.1221530592,-0.18300
 11554\C,-1.0185270348,-0.893640979,-0.234376019\C,-1.7502275224,0.2724
 751099,-0.4342432663\C,-3.1344025641,0.2058674668,-0.5748520614\C,-3.7
 746252789,-1.0272559125,-0.5205918082\C,-3.8136294746,-3.5099948316,-0
 .2821359476\C,-3.551844015,-4.5274219638,-1.20778023\C,-4.2973636577,-
 5.6989244992,-1.1693943297\C,-5.3036347766,-5.8940891988,-0.2282758973
 \C,-5.5618527831,-4.8800047784,0.6900623325\C,-4.8280335616,-3.6964128
 312,0.6641619834\H,0.056220359,-0.8589877053,-0.1098678827\H,-1.237181
 4418,1.2262164275,-0.4759020758\H,-3.7133309466,1.1084028569,-0.731863
 8328\H,-4.8499669536,-1.0831996928,-0.6454744305\H,-2.7799228361,-4.40
 46391661,-1.9557098081\H,-5.8683735853,-6.8173084722,-0.2169024089\H,-
 6.3392642701,-5.0179361769,1.4327665406\H,-5.0305726747,-2.9177703352,
 1.3901776663\Cl,-0.689512935,-3.5514467616,0.1240223378\Cl,-3.96363531
 14,-6.9642056057,-2.3466703672\\Version=EM64L-G16RevB.01\State=1-A\HF=
 -1382.6639006\RMSD=3.051e-09\RMSF=8.637e-06\Dipole=-0.4840175,1.035121
 1,0.3563068\Quadrupole=1.4239633,2.7864565,-4.2104198,2.572851,-3.3927
 464,-2.0758839\PG=C01 [X(C12H8Cl2)]\\@


 PENOTUS DIED A HUNDRED YEARS OLD WANTING BUT TWO...
 AND HE USED TO SAY BEFORE HE DIED, HAVING SPENT HIS
 WHOLE LIFE IN VAINLY SEARCHING AFTER THE PHILOSOPHER'S
 STONE, THAT IF HE HAD A MORTAL ENEMY HE DID NOT DARE
 TO ENCOUNTER OPENLY, HE WOULD ADVISE HIM ABOVE ALL
 THINGS TO GIVE HIMSELF UP TO THE STUDY AND PRACTICE
 OF ALCHEMY.  --  NICOLAS LEMERY, M.D.
 "A COURSE OF CHYMISTRY", WALTER KETTILBY, LONDON, 1686
 Job cpu time:       0 days  9 hours 40 minutes  9.0 seconds.
 Elapsed time:       0 days  3 hours 15 minutes 13.7 seconds.
 File lengths (MBytes):  RWF=     93 Int=      0 D2E=      0 Chk=     15 Scr=      1
 Normal termination of Gaussian 16 at Mon Mar 14 20:18:19 2022.
