 Entering Gaussian System, Link 0=g16
 Input=2,3prime,4,6-Tetrachlorobiphenyl.gjf
 Output=2,3prime,4,6-Tetrachlorobiphenyl.log
 Initial command:
 /opt/g16/l1.exe "/scratch/gour/Gau-24027.inp" -scrdir="/scratch/gour/"
 Entering Link 1 = /opt/g16/l1.exe PID=     24028.
  
 Copyright (c) 1988-2017, Gaussian, Inc.  All Rights Reserved.
  
 This is part of the Gaussian(R) 16 program.  It is based on
 the Gaussian(R) 09 system (copyright 2009, Gaussian, Inc.),
 the Gaussian(R) 03 system (copyright 2003, Gaussian, Inc.),
 the Gaussian(R) 98 system (copyright 1998, Gaussian, Inc.),
 the Gaussian(R) 94 system (copyright 1995, Gaussian, Inc.),
 the Gaussian 92(TM) system (copyright 1992, Gaussian, Inc.),
 the Gaussian 90(TM) system (copyright 1990, Gaussian, Inc.),
 the Gaussian 88(TM) system (copyright 1988, Gaussian, Inc.),
 the Gaussian 86(TM) system (copyright 1986, Carnegie Mellon
 University), and the Gaussian 82(TM) system (copyright 1983,
 Carnegie Mellon University). Gaussian is a federally registered
 trademark of Gaussian, Inc.
  
 This software contains proprietary and confidential information,
 including trade secrets, belonging to Gaussian, Inc.
  
 This software is provided under written license and may be
 used, copied, transmitted, or stored only in accord with that
 written license.
  
 The following legend is applicable only to US Government
 contracts under FAR:
  
                    RESTRICTED RIGHTS LEGEND
  
 Use, reproduction and disclosure by the US Government is
 subject to restrictions as set forth in subparagraphs (a)
 and (c) of the Commercial Computer Software - Restricted
 Rights clause in FAR 52.227-19.
  
 Gaussian, Inc.
 340 Quinnipiac St., Bldg. 40, Wallingford CT 06492
  
  
 ---------------------------------------------------------------
 Warning -- This program may not be used in any manner that
 competes with the business of Gaussian, Inc. or will provide
 assistance to any competitor of Gaussian, Inc.  The licensee
 of this program is prohibited from giving any competitor of
 Gaussian, Inc. access to this program.  By using this program,
 the user acknowledges that Gaussian, Inc. is engaged in the
 business of creating and licensing software in the field of
 computational chemistry and represents and warrants to the
 licensee that it is not a competitor of Gaussian, Inc. and that
 it will not use this program in any manner prohibited above.
 ---------------------------------------------------------------
  

 Cite this work as:
 Gaussian 16, Revision B.01,
 M. J. Frisch, G. W. Trucks, H. B. Schlegel, G. E. Scuseria, 
 M. A. Robb, J. R. Cheeseman, G. Scalmani, V. Barone, 
 G. A. Petersson, H. Nakatsuji, X. Li, M. Caricato, A. V. Marenich, 
 J. Bloino, B. G. Janesko, R. Gomperts, B. Mennucci, H. P. Hratchian, 
 J. V. Ortiz, A. F. Izmaylov, J. L. Sonnenberg, D. Williams-Young, 
 F. Ding, F. Lipparini, F. Egidi, J. Goings, B. Peng, A. Petrone, 
 T. Henderson, D. Ranasinghe, V. G. Zakrzewski, J. Gao, N. Rega, 
 G. Zheng, W. Liang, M. Hada, M. Ehara, K. Toyota, R. Fukuda, 
 J. Hasegawa, M. Ishida, T. Nakajima, Y. Honda, O. Kitao, H. Nakai, 
 T. Vreven, K. Throssell, J. A. Montgomery, Jr., J. E. Peralta, 
 F. Ogliaro, M. J. Bearpark, J. J. Heyd, E. N. Brothers, K. N. Kudin, 
 V. N. Staroverov, T. A. Keith, R. Kobayashi, J. Normand, 
 K. Raghavachari, A. P. Rendell, J. C. Burant, S. S. Iyengar, 
 J. Tomasi, M. Cossi, J. M. Millam, M. Klene, C. Adamo, R. Cammi, 
 J. W. Ochterski, R. L. Martin, K. Morokuma, O. Farkas, 
 J. B. Foresman, and D. J. Fox, Gaussian, Inc., Wallingford CT, 2016.
 
 ******************************************
 Gaussian 16:  EM64L-G16RevB.01 20-Dec-2017
                15-Mar-2022 
 ******************************************
 %mem=10GB
 %nprocshared=4
 Will use up to    4 processors via shared memory.
 --------------------------------
 # opt b3lyp/6-311+g(d,p) scf=xqc
 --------------------------------
 1/18=20,19=15,26=3,38=1/1,3;
 2/9=110,12=2,17=6,18=5,40=1/2;
 3/5=4,6=6,7=111,11=2,25=1,30=1,71=1,74=-5/1,2,3;
 4//1;
 5/5=2,8=3,13=1,38=5/2,8;
 6/7=2,8=2,9=2,10=2,28=1/1;
 7//1,2,3,16;
 1/18=20,19=15,26=3/3(2);
 2/9=110/2;
 99//99;
 2/9=110/2;
 3/5=4,6=6,7=111,11=2,25=1,30=1,71=1,74=-5/1,2,3;
 4/5=5,16=3,69=1/1;
 5/5=2,8=3,13=1,38=5/2,8;
 7//1,2,3,16;
 1/18=20,19=15,26=3/3(-5);
 2/9=110/2;
 6/7=2,8=2,9=2,10=2,19=2,28=1/1;
 99/9=1/99;
 -------------------
 Title Card Required
 -------------------
 Symbolic Z-matrix:
 Charge =  0 Multiplicity = 1
 C                     0.15044   2.38164   0.44616 
 C                     1.48282   2.41153   0.01282 
 C                     2.19071   3.62098   0.00674 
 C                     1.56623   4.80054   0.43402 
 C                     0.23385   4.77066   0.86736 
 C                    -0.47405   3.56121   0.87344 
 C                    -0.62747   1.05257   0.45284 
 C                    -0.00298  -0.12699   0.02556 
 C                    -0.71087  -1.33644   0.03164 
 C                    -2.04325  -1.36633   0.46499 
 C                    -2.66774  -0.18676   0.89226 
 C                    -1.95984   1.02269   0.88619 
 H                     1.95963   1.5109   -0.31342 
 H                     3.20802   3.6438   -0.32413 
 H                     2.10672   5.72398   0.42938 
 H                    -1.49135   3.53839   1.2043 
 H                    -0.23406  -2.23707  -0.2946 
 H                    -3.68504  -0.20958   1.22314 
 Cl                   -2.74413   2.50409   1.4228 
 Cl                   -0.55044   6.25206   1.40397 
 Cl                   -2.93228  -2.88526   0.47262 
 Cl                    1.67034  -0.08946  -0.51867 
 

 GradGradGradGradGradGradGradGradGradGradGradGradGradGradGradGradGradGrad
 Berny optimization.
 Initialization pass.
                           ----------------------------
                           !    Initial Parameters    !
                           ! (Angstroms and Degrees)  !
 --------------------------                            --------------------------
 ! Name  Definition              Value          Derivative Info.                !
 --------------------------------------------------------------------------------
 ! R1    R(1,2)                  1.4014         estimate D2E/DX2                !
 ! R2    R(1,6)                  1.4014         estimate D2E/DX2                !
 ! R3    R(1,7)                  1.54           estimate D2E/DX2                !
 ! R4    R(2,3)                  1.4014         estimate D2E/DX2                !
 ! R5    R(2,13)                 1.07           estimate D2E/DX2                !
 ! R6    R(3,4)                  1.4014         estimate D2E/DX2                !
 ! R7    R(3,14)                 1.07           estimate D2E/DX2                !
 ! R8    R(4,5)                  1.4014         estimate D2E/DX2                !
 ! R9    R(4,15)                 1.07           estimate D2E/DX2                !
 ! R10   R(5,6)                  1.4014         estimate D2E/DX2                !
 ! R11   R(5,20)                 1.76           estimate D2E/DX2                !
 ! R12   R(6,16)                 1.07           estimate D2E/DX2                !
 ! R13   R(7,8)                  1.4014         estimate D2E/DX2                !
 ! R14   R(7,12)                 1.4014         estimate D2E/DX2                !
 ! R15   R(8,9)                  1.4014         estimate D2E/DX2                !
 ! R16   R(8,22)                 1.76           estimate D2E/DX2                !
 ! R17   R(9,10)                 1.4014         estimate D2E/DX2                !
 ! R18   R(9,17)                 1.07           estimate D2E/DX2                !
 ! R19   R(10,11)                1.4014         estimate D2E/DX2                !
 ! R20   R(10,21)                1.76           estimate D2E/DX2                !
 ! R21   R(11,12)                1.4014         estimate D2E/DX2                !
 ! R22   R(11,18)                1.07           estimate D2E/DX2                !
 ! R23   R(12,19)                1.76           estimate D2E/DX2                !
 ! A1    A(2,1,6)              120.0            estimate D2E/DX2                !
 ! A2    A(2,1,7)              120.0            estimate D2E/DX2                !
 ! A3    A(6,1,7)              120.0            estimate D2E/DX2                !
 ! A4    A(1,2,3)              120.0            estimate D2E/DX2                !
 ! A5    A(1,2,13)             120.0            estimate D2E/DX2                !
 ! A6    A(3,2,13)             120.0            estimate D2E/DX2                !
 ! A7    A(2,3,4)              120.0            estimate D2E/DX2                !
 ! A8    A(2,3,14)             120.0            estimate D2E/DX2                !
 ! A9    A(4,3,14)             120.0            estimate D2E/DX2                !
 ! A10   A(3,4,5)              120.0            estimate D2E/DX2                !
 ! A11   A(3,4,15)             120.0            estimate D2E/DX2                !
 ! A12   A(5,4,15)             120.0            estimate D2E/DX2                !
 ! A13   A(4,5,6)              120.0            estimate D2E/DX2                !
 ! A14   A(4,5,20)             120.0            estimate D2E/DX2                !
 ! A15   A(6,5,20)             120.0            estimate D2E/DX2                !
 ! A16   A(1,6,5)              120.0            estimate D2E/DX2                !
 ! A17   A(1,6,16)             120.0            estimate D2E/DX2                !
 ! A18   A(5,6,16)             120.0            estimate D2E/DX2                !
 ! A19   A(1,7,8)              120.0            estimate D2E/DX2                !
 ! A20   A(1,7,12)             120.0            estimate D2E/DX2                !
 ! A21   A(8,7,12)             120.0            estimate D2E/DX2                !
 ! A22   A(7,8,9)              120.0            estimate D2E/DX2                !
 ! A23   A(7,8,22)             120.0            estimate D2E/DX2                !
 ! A24   A(9,8,22)             120.0            estimate D2E/DX2                !
 ! A25   A(8,9,10)             120.0            estimate D2E/DX2                !
 ! A26   A(8,9,17)             120.0            estimate D2E/DX2                !
 ! A27   A(10,9,17)            120.0            estimate D2E/DX2                !
 ! A28   A(9,10,11)            120.0            estimate D2E/DX2                !
 ! A29   A(9,10,21)            120.0            estimate D2E/DX2                !
 ! A30   A(11,10,21)           120.0            estimate D2E/DX2                !
 ! A31   A(10,11,12)           120.0            estimate D2E/DX2                !
 ! A32   A(10,11,18)           120.0            estimate D2E/DX2                !
 ! A33   A(12,11,18)           120.0            estimate D2E/DX2                !
 ! A34   A(7,12,11)            120.0            estimate D2E/DX2                !
 ! A35   A(7,12,19)            120.0            estimate D2E/DX2                !
 ! A36   A(11,12,19)           120.0            estimate D2E/DX2                !
 ! D1    D(6,1,2,3)              0.0001         estimate D2E/DX2                !
 ! D2    D(6,1,2,13)           180.0            estimate D2E/DX2                !
 ! D3    D(7,1,2,3)           -180.0            estimate D2E/DX2                !
 ! D4    D(7,1,2,13)            -0.0001         estimate D2E/DX2                !
 ! D5    D(2,1,6,5)             -0.0001         estimate D2E/DX2                !
 ! D6    D(2,1,6,16)           180.0            estimate D2E/DX2                !
 ! D7    D(7,1,6,5)            180.0            estimate D2E/DX2                !
 ! D8    D(7,1,6,16)             0.0            estimate D2E/DX2                !
 ! D9    D(2,1,7,8)             -0.0001         estimate D2E/DX2                !
 ! D10   D(2,1,7,12)           179.9998         estimate D2E/DX2                !
 ! D11   D(6,1,7,8)            179.9999         estimate D2E/DX2                !
 ! D12   D(6,1,7,12)            -0.0002         estimate D2E/DX2                !
 ! D13   D(1,2,3,4)              0.0            estimate D2E/DX2                !
 ! D14   D(1,2,3,14)           180.0            estimate D2E/DX2                !
 ! D15   D(13,2,3,4)          -179.9999         estimate D2E/DX2                !
 ! D16   D(13,2,3,14)            0.0001         estimate D2E/DX2                !
 ! D17   D(2,3,4,5)             -0.0001         estimate D2E/DX2                !
 ! D18   D(2,3,4,15)           180.0            estimate D2E/DX2                !
 ! D19   D(14,3,4,5)           179.9999         estimate D2E/DX2                !
 ! D20   D(14,3,4,15)            0.0            estimate D2E/DX2                !
 ! D21   D(3,4,5,6)              0.0001         estimate D2E/DX2                !
 ! D22   D(3,4,5,20)          -179.9999         estimate D2E/DX2                !
 ! D23   D(15,4,5,6)          -180.0            estimate D2E/DX2                !
 ! D24   D(15,4,5,20)            0.0            estimate D2E/DX2                !
 ! D25   D(4,5,6,1)              0.0            estimate D2E/DX2                !
 ! D26   D(4,5,6,16)           179.9999         estimate D2E/DX2                !
 ! D27   D(20,5,6,1)           180.0            estimate D2E/DX2                !
 ! D28   D(20,5,6,16)           -0.0001         estimate D2E/DX2                !
 ! D29   D(1,7,8,9)            179.9999         estimate D2E/DX2                !
 ! D30   D(1,7,8,22)             0.0001         estimate D2E/DX2                !
 ! D31   D(12,7,8,9)             0.0001         estimate D2E/DX2                !
 ! D32   D(12,7,8,22)         -179.9998         estimate D2E/DX2                !
 ! D33   D(1,7,12,11)         -179.9999         estimate D2E/DX2                !
 ! D34   D(1,7,12,19)            0.0            estimate D2E/DX2                !
 ! D35   D(8,7,12,11)           -0.0001         estimate D2E/DX2                !
 ! D36   D(8,7,12,19)          179.9999         estimate D2E/DX2                !
 ! D37   D(7,8,9,10)             0.0            estimate D2E/DX2                !
 ! D38   D(7,8,9,17)           180.0            estimate D2E/DX2                !
 ! D39   D(22,8,9,10)          179.9998         estimate D2E/DX2                !
 ! D40   D(22,8,9,17)           -0.0002         estimate D2E/DX2                !
 ! D41   D(8,9,10,11)            0.0            estimate D2E/DX2                !
 ! D42   D(8,9,10,21)         -179.9999         estimate D2E/DX2                !
 ! D43   D(17,9,10,11)         180.0            estimate D2E/DX2                !
 ! D44   D(17,9,10,21)           0.0001         estimate D2E/DX2                !
 ! D45   D(9,10,11,12)           0.0            estimate D2E/DX2                !
 ! D46   D(9,10,11,18)        -179.9998         estimate D2E/DX2                !
 ! D47   D(21,10,11,12)        179.9999         estimate D2E/DX2                !
 ! D48   D(21,10,11,18)          0.0001         estimate D2E/DX2                !
 ! D49   D(10,11,12,7)           0.0            estimate D2E/DX2                !
 ! D50   D(10,11,12,19)       -179.9999         estimate D2E/DX2                !
 ! D51   D(18,11,12,7)         179.9999         estimate D2E/DX2                !
 ! D52   D(18,11,12,19)         -0.0001         estimate D2E/DX2                !
 --------------------------------------------------------------------------------
 Trust Radius=3.00D-01 FncErr=1.00D-07 GrdErr=1.00D-06 EigMax=2.50D+02 EigMin=1.00D-04
 Number of steps in this run=    121 maximum allowed number of steps=    132.
 GradGradGradGradGradGradGradGradGradGradGradGradGradGradGradGradGradGrad

                          Input orientation:                          
 ---------------------------------------------------------------------
 Center     Atomic      Atomic             Coordinates (Angstroms)
 Number     Number       Type             X           Y           Z
 ---------------------------------------------------------------------
      1          6           0        0.150440    2.381640    0.446163
      2          6           0        1.482821    2.411526    0.012816
      3          6           0        2.190715    3.620977    0.006744
      4          6           0        1.566227    4.800542    0.434019
      5          6           0        0.233845    4.770657    0.867363
      6          6           0       -0.474048    3.561206    0.873436
      7          6           0       -0.627465    1.052573    0.452837
      8          6           0       -0.002978   -0.126992    0.025562
      9          6           0       -0.710871   -1.336443    0.031636
     10          6           0       -2.043251   -1.366330    0.464986
     11          6           0       -2.667738   -0.186765    0.892261
     12          6           0       -1.959845    1.022686    0.886187
     13          1           0        1.959632    1.510902   -0.313416
     14          1           0        3.208017    3.643795   -0.324125
     15          1           0        2.106720    5.723985    0.429383
     16          1           0       -1.491351    3.538387    1.204305
     17          1           0       -0.234061   -2.237068   -0.294598
     18          1           0       -3.685039   -0.209584    1.223136
     19         17           0       -2.744130    2.504086    1.422798
     20         17           0       -0.550441    6.252058    1.403969
     21         17           0       -2.932283   -2.885265    0.472617
     22         17           0        1.670343   -0.089459   -0.518672
 ---------------------------------------------------------------------
                    Distance matrix (angstroms):
                    1          2          3          4          5
     1  C    0.000000
     2  C    1.401400   0.000000
     3  C    2.427296   1.401400   0.000000
     4  C    2.802800   2.427296   1.401400   0.000000
     5  C    2.427296   2.802800   2.427296   1.401400   0.000000
     6  C    1.401400   2.427296   2.802800   2.427296   1.401400
     7  C    1.540000   2.548270   3.838989   4.342800   3.838989
     8  C    2.548270   2.941400   4.342800   5.187469   4.975106
     9  C    3.838989   4.342800   5.744200   6.558176   6.235992
    10  C    4.342800   5.187469   6.558176   7.145600   6.558176
    11  C    3.838989   4.975106   6.235992   6.558176   5.744200
    12  C    2.548270   3.813607   4.975106   5.187469   4.342800
    13  H    2.146700   1.070000   2.146700   3.396345   3.872800
    14  H    3.396345   2.146700   1.070000   2.146700   3.396345
    15  H    3.872800   3.396345   2.146700   1.070000   2.146700
    16  H    2.146700   3.396345   3.872800   3.396345   2.146700
    17  H    4.693509   4.965039   6.347206   7.300676   7.118798
    18  H    4.693509   5.919617   7.118798   7.300676   6.347206
    19  Cl   3.057342   4.456874   5.254079   4.983028   3.783409
    20  Cl   4.048303   4.562800   4.048303   2.743718   1.760000
    21  Cl   6.102800   6.910901   8.294174   8.905600   8.294174
    22  Cl   3.057342   2.563702   3.783409   4.983028   5.254079
                    6          7          8          9         10
     6  C    0.000000
     7  C    2.548270   0.000000
     8  C    3.813607   1.401400   0.000000
     9  C    4.975106   2.427296   1.401400   0.000000
    10  C    5.187469   2.802800   2.427296   1.401400   0.000000
    11  C    4.342800   2.427296   2.802800   2.427296   1.401400
    12  C    2.941400   1.401400   2.427296   2.802800   2.427296
    13  H    3.396345   2.736837   2.578650   3.918930   4.990735
    14  H    3.872800   4.693509   4.965039   6.347206   7.300676
    15  H    3.396345   5.412800   6.232802   7.612271   8.215600
    16  H    1.070000   2.736837   4.127917   5.074276   4.990735
    17  H    5.919617   3.396345   2.146700   1.070000   2.146700
    18  H    4.965039   3.396345   3.872800   3.396345   2.146700
    19  Cl   2.563702   2.743718   4.048303   4.562800   4.048303
    20  Cl   2.743718   5.286324   6.549198   7.713260   7.819846
    21  Cl   6.910901   4.562800   4.048303   2.743718   1.760000
    22  Cl   4.456874   2.743718   1.760000   2.743718   4.048303
                   11         12         13         14         15
    11  C    0.000000
    12  C    1.401400   0.000000
    13  H    5.074276   4.127917   0.000000
    14  H    7.118798   5.919617   2.471400   0.000000
    15  H    7.612271   6.232802   4.280590   2.471400   0.000000
    16  H    3.918930   2.578650   4.280590   4.942800   4.280590
    17  H    3.396345   3.872800   4.342800   6.814200   8.329571
    18  H    1.070000   2.146700   6.097816   8.047159   8.329571
    19  Cl   2.743718   1.760000   5.111382   6.307038   5.906383
    20  Cl   6.797295   5.440665   5.632800   4.890332   2.879094
    21  Cl   2.743718   4.048303   6.623817   8.998151   9.975600
    22  Cl   4.562800   4.048303   1.639199   4.042212   5.906383
                   16         17         18         19         20
    16  H    0.000000
    17  H    6.097816   0.000000
    18  H    4.342800   4.280590   0.000000
    19  Cl   1.639199   5.632800   2.879094   0.000000
    20  Cl   2.879094   8.663168   7.184095   4.342800   0.000000
    21  Cl   6.623817   2.879094   2.879094   5.475705   9.488480
    22  Cl   5.111382   2.879094   5.632800   5.475705   6.988795
                   21         22
    21  Cl   0.000000
    22  Cl   5.475705   0.000000
 Stoichiometry    C12H6Cl4
 Framework group  C1[X(C12H6Cl4)]
 Deg. of freedom    60
 Full point group                 C1      NOp   1
 Largest Abelian subgroup         C1      NOp   1
 Largest concise Abelian subgroup C1      NOp   1
                         Standard orientation:                         
 ---------------------------------------------------------------------
 Center     Atomic      Atomic             Coordinates (Angstroms)
 Number     Number       Type             X           Y           Z
 ---------------------------------------------------------------------
      1          6           0       -0.972524    0.540653   -0.000001
      2          6           0       -1.377372    1.882301    0.000001
      3          6           0       -2.741698    2.202516    0.000003
      4          6           0       -3.701175    1.181083    0.000004
      5          6           0       -3.296327   -0.160565   -0.000000
      6          6           0       -1.932001   -0.480780   -0.000002
      7          6           0        0.526735    0.188768   -0.000002
      8          6           0        1.486212    1.210201   -0.000003
      9          6           0        2.850538    0.889986   -0.000003
     10          6           0        3.255386   -0.451662   -0.000002
     11          6           0        2.295909   -1.473095   -0.000000
     12          6           0        0.931583   -1.152880   -0.000000
     13          1           0       -0.644790    2.662188    0.000003
     14          1           0       -3.050809    3.226894    0.000006
     15          1           0       -4.742868    1.425574    0.000006
     16          1           0       -1.622890   -1.505158   -0.000004
     17          1           0        3.583120    1.669873   -0.000004
     18          1           0        2.605020   -2.497473    0.000003
     19         17           0       -0.273411   -2.435684    0.000003
     20         17           0       -4.501322   -1.443370   -0.000003
     21         17           0        4.968825   -0.853816    0.000001
     22         17           0        0.977768    2.895160   -0.000000
 ---------------------------------------------------------------------
 Rotational constants (GHZ):           0.6121921           0.2058476           0.1540491
 Standard basis: 6-311+G(d,p) (5D, 7F)
 There are   436 symmetry adapted cartesian basis functions of A   symmetry.
 There are   420 symmetry adapted basis functions of A   symmetry.
   420 basis functions,   692 primitive gaussians,   436 cartesian basis functions
    73 alpha electrons       73 beta electrons
       nuclear repulsion energy      1453.5658861035 Hartrees.
 NAtoms=   22 NActive=   22 NUniq=   22 SFac= 1.00D+00 NAtFMM=   60 NAOKFM=F Big=F
 Integral buffers will be    131072 words long.
 Raffenetti 2 integral format.
 Two-electron integral symmetry is turned on.
 One-electron integrals computed using PRISM.
 NBasis=   420 RedAO= T EigKep=  1.05D-06  NBF=   420
 NBsUse=   415 1.00D-06 EigRej=  6.04D-07 NBFU=   415
 ExpMin= 4.38D-02 ExpMax= 1.06D+05 ExpMxC= 3.62D+03 IAcc=3 IRadAn=         5 AccDes= 0.00D+00
 Harris functional with IExCor=  402 and IRadAn=       5 diagonalized for initial guess.
 HarFok:  IExCor=  402 AccDes= 0.00D+00 IRadAn=         5 IDoV= 1 UseB2=F ITyADJ=14
 ICtDFT=  3500011 ScaDFX=  1.000000  1.000000  1.000000  1.000000
 FoFCou: FMM=F IPFlag=           0 FMFlag=      100000 FMFlg1=           0
         NFxFlg=           0 DoJE=T BraDBF=F KetDBF=T FulRan=T
         wScrn=  0.000000 ICntrl=       500 IOpCl=  0 I1Cent=   200000004 NGrid=           0
         NMat0=    1 NMatS0=      1 NMatT0=    0 NMatD0=    1 NMtDS0=    0 NMtDT0=    0
 Petite list used in FoFCou.
 Requested convergence on RMS density matrix=1.00D-08 within  32 cycles.
 Requested convergence on MAX density matrix=1.00D-06.
 Requested convergence on             energy=1.00D-06.
 No special actions if energy rises.
 SCF Done:  E(RB3LYP) =  -2301.78360634     A.U. after   16 cycles
            NFock= 16  Conv=0.53D-08     -V/T= 2.0025
 QCSCF skips out because SCF is already converged.

 **********************************************************************

            Population analysis using the SCF Density.

 **********************************************************************

 Orbital symmetries:
       Occupied  (A) (A) (A) (A) (A) (A) (A) (A) (A) (A) (A) (A)
                 (A) (A) (A) (A) (A) (A) (A) (A) (A) (A) (A) (A)
                 (A) (A) (A) (A) (A) (A) (A) (A) (A) (A) (A) (A)
                 (A) (A) (A) (A) (A) (A) (A) (A) (A) (A) (A) (A)
                 (A) (A) (A) (A) (A) (A) (A) (A) (A) (A) (A) (A)
                 (A) (A) (A) (A) (A) (A) (A) (A) (A) (A) (A) (A)
                 (A)
       Virtual   (A) (A) (A) (A) (A) (A) (A) (A) (A) (A) (A) (A)
                 (A) (A) (A) (A) (A) (A) (A) (A) (A) (A) (A) (A)
                 (A) (A) (A) (A) (A) (A) (A) (A) (A) (A) (A) (A)
                 (A) (A) (A) (A) (A) (A) (A) (A) (A) (A) (A) (A)
                 (A) (A) (A) (A) (A) (A) (A) (A) (A) (A) (A) (A)
                 (A) (A) (A) (A) (A) (A) (A) (A) (A) (A) (A) (A)
                 (A) (A) (A) (A) (A) (A) (A) (A) (A) (A) (A) (A)
                 (A) (A) (A) (A) (A) (A) (A) (A) (A) (A) (A) (A)
                 (A) (A) (A) (A) (A) (A) (A) (A) (A) (A) (A) (A)
                 (A) (A) (A) (A) (A) (A) (A) (A) (A) (A) (A) (A)
                 (A) (A) (A) (A) (A) (A) (A) (A) (A) (A) (A) (A)
                 (A) (A) (A) (A) (A) (A) (A) (A) (A) (A) (A) (A)
                 (A) (A) (A) (A) (A) (A) (A) (A) (A) (A) (A) (A)
                 (A) (A) (A) (A) (A) (A) (A) (A) (A) (A) (A) (A)
                 (A) (A) (A) (A) (A) (A) (A) (A) (A) (A) (A) (A)
                 (A) (A) (A) (A) (A) (A) (A) (A) (A) (A) (A) (A)
                 (A) (A) (A) (A) (A) (A) (A) (A) (A) (A) (A) (A)
                 (A) (A) (A) (A) (A) (A) (A) (A) (A) (A) (A) (A)
                 (A) (A) (A) (A) (A) (A) (A) (A) (A) (A) (A) (A)
                 (A) (A) (A) (A) (A) (A) (A) (A) (A) (A) (A) (A)
                 (A) (A) (A) (A) (A) (A) (A) (A) (A) (A) (A) (A)
                 (A) (A) (A) (A) (A) (A) (A) (A) (A) (A) (A) (A)
                 (A) (A) (A) (A) (A) (A) (A) (A) (A) (A) (A) (A)
                 (A) (A) (A) (A) (A) (A) (A) (A) (A) (A) (A) (A)
                 (A) (A) (A) (A) (A) (A) (A) (A) (A) (A) (A) (A)
                 (A) (A) (A) (A) (A) (A) (A) (A) (A) (A) (A) (A)
                 (A) (A) (A) (A) (A) (A) (A) (A) (A) (A) (A) (A)
                 (A) (A) (A) (A) (A) (A) (A) (A) (A) (A) (A) (A)
                 (A) (A) (A) (A) (A) (A)
 The electronic state is 1-A.
 Alpha  occ. eigenvalues -- -101.58264-101.58229-101.57998-101.55548 -10.27916
 Alpha  occ. eigenvalues --  -10.27877 -10.27533 -10.24120 -10.23880 -10.22495
 Alpha  occ. eigenvalues --  -10.22476 -10.21209 -10.19101 -10.18747 -10.17356
 Alpha  occ. eigenvalues --  -10.16815  -9.50036  -9.49996  -9.49412  -9.46998
 Alpha  occ. eigenvalues --   -7.26452  -7.26413  -7.25901  -7.25484  -7.25463
 Alpha  occ. eigenvalues --   -7.25441  -7.25425  -7.24882  -7.24851  -7.23452
 Alpha  occ. eigenvalues --   -7.22483  -7.22455  -0.95086  -0.91790  -0.90737
 Alpha  occ. eigenvalues --   -0.89066  -0.84802  -0.84334  -0.79093  -0.77837
 Alpha  occ. eigenvalues --   -0.75017  -0.73724  -0.64868  -0.64443  -0.62812
 Alpha  occ. eigenvalues --   -0.61244  -0.54801  -0.54192  -0.53001  -0.49498
 Alpha  occ. eigenvalues --   -0.48915  -0.48347  -0.47062  -0.45637  -0.45483
 Alpha  occ. eigenvalues --   -0.45413  -0.41917  -0.41426  -0.40433  -0.39873
 Alpha  occ. eigenvalues --   -0.39790  -0.38768  -0.38762  -0.34428  -0.34300
 Alpha  occ. eigenvalues --   -0.33722  -0.31946  -0.29777  -0.29567  -0.28454
 Alpha  occ. eigenvalues --   -0.28276  -0.25681  -0.24775
 Alpha virt. eigenvalues --   -0.06984  -0.06266  -0.04492  -0.02689  -0.00889
 Alpha virt. eigenvalues --   -0.00661  -0.00434   0.00311   0.01146   0.01471
 Alpha virt. eigenvalues --    0.01786   0.02835   0.03904   0.04264   0.04687
 Alpha virt. eigenvalues --    0.05401   0.05648   0.05979   0.06723   0.06727
 Alpha virt. eigenvalues --    0.08164   0.08319   0.08462   0.08483   0.08775
 Alpha virt. eigenvalues --    0.09154   0.09666   0.10768   0.10961   0.11019
 Alpha virt. eigenvalues --    0.11342   0.12249   0.12397   0.12415   0.13718
 Alpha virt. eigenvalues --    0.13757   0.14257   0.14490   0.14623   0.15759
 Alpha virt. eigenvalues --    0.15761   0.16335   0.16496   0.16601   0.17301
 Alpha virt. eigenvalues --    0.17449   0.17633   0.17905   0.18964   0.19453
 Alpha virt. eigenvalues --    0.19807   0.20269   0.20584   0.20790   0.21265
 Alpha virt. eigenvalues --    0.21581   0.21690   0.21995   0.22619   0.22926
 Alpha virt. eigenvalues --    0.23579   0.24021   0.24310   0.24619   0.24841
 Alpha virt. eigenvalues --    0.25545   0.26005   0.27048   0.27169   0.27639
 Alpha virt. eigenvalues --    0.28176   0.28553   0.30184   0.30774   0.31015
 Alpha virt. eigenvalues --    0.31356   0.31749   0.32507   0.33121   0.33778
 Alpha virt. eigenvalues --    0.34800   0.36719   0.37067   0.38498   0.40425
 Alpha virt. eigenvalues --    0.41350   0.42230   0.42874   0.43346   0.43799
 Alpha virt. eigenvalues --    0.44210   0.45190   0.45207   0.45820   0.47122
 Alpha virt. eigenvalues --    0.47731   0.49069   0.49690   0.51037   0.51616
 Alpha virt. eigenvalues --    0.51680   0.53659   0.53960   0.54542   0.54834
 Alpha virt. eigenvalues --    0.55981   0.56505   0.56807   0.57981   0.58624
 Alpha virt. eigenvalues --    0.59015   0.59267   0.59864   0.60400   0.61667
 Alpha virt. eigenvalues --    0.62791   0.63237   0.63779   0.64868   0.66038
 Alpha virt. eigenvalues --    0.66263   0.67370   0.67909   0.68702   0.68709
 Alpha virt. eigenvalues --    0.69658   0.72454   0.73036   0.77507   0.78764
 Alpha virt. eigenvalues --    0.79800   0.80882   0.81665   0.82354   0.82357
 Alpha virt. eigenvalues --    0.82577   0.82854   0.83484   0.84310   0.84325
 Alpha virt. eigenvalues --    0.84425   0.86122   0.86416   0.86492   0.87424
 Alpha virt. eigenvalues --    0.87452   0.88138   0.88916   0.89314   0.89558
 Alpha virt. eigenvalues --    0.90430   0.91887   0.92656   0.94050   0.94361
 Alpha virt. eigenvalues --    0.94829   0.95099   0.95358   0.96078   0.98161
 Alpha virt. eigenvalues --    0.98600   0.99429   1.00113   1.01064   1.01294
 Alpha virt. eigenvalues --    1.01515   1.05746   1.06501   1.08501   1.09120
 Alpha virt. eigenvalues --    1.09531   1.11657   1.12589   1.13386   1.14505
 Alpha virt. eigenvalues --    1.16828   1.18247   1.20008   1.20174   1.24448
 Alpha virt. eigenvalues --    1.27036   1.27920   1.28324   1.28707   1.29533
 Alpha virt. eigenvalues --    1.31405   1.33266   1.34863   1.36710   1.41794
 Alpha virt. eigenvalues --    1.44702   1.46303   1.49851   1.51299   1.51546
 Alpha virt. eigenvalues --    1.54668   1.55368   1.55548   1.58467   1.58680
 Alpha virt. eigenvalues --    1.59342   1.60272   1.61972   1.62965   1.65558
 Alpha virt. eigenvalues --    1.67590   1.68099   1.70117   1.74986   1.76142
 Alpha virt. eigenvalues --    1.78549   1.80783   1.82702   1.84212   1.85206
 Alpha virt. eigenvalues --    1.86249   1.86325   1.90560   1.90712   1.92656
 Alpha virt. eigenvalues --    1.92907   1.95295   1.95334   1.96130   1.98313
 Alpha virt. eigenvalues --    1.99163   2.00166   2.03934   2.04075   2.04684
 Alpha virt. eigenvalues --    2.07721   2.09356   2.10369   2.12765   2.19344
 Alpha virt. eigenvalues --    2.20078   2.21938   2.24211   2.25152   2.25612
 Alpha virt. eigenvalues --    2.26525   2.28021   2.29335   2.34615   2.34726
 Alpha virt. eigenvalues --    2.35559   2.39284   2.39607   2.41003   2.43830
 Alpha virt. eigenvalues --    2.46050   2.50888   2.51335   2.52861   2.54003
 Alpha virt. eigenvalues --    2.55785   2.57915   2.59541   2.60368   2.62365
 Alpha virt. eigenvalues --    2.64734   2.65376   2.68869   2.69850   2.71217
 Alpha virt. eigenvalues --    2.72519   2.73463   2.74227   2.74983   2.75176
 Alpha virt. eigenvalues --    2.76829   2.79400   2.80143   2.80850   2.81237
 Alpha virt. eigenvalues --    2.83238   2.85307   2.86527   2.91515   2.93147
 Alpha virt. eigenvalues --    2.99880   3.04514   3.06654   3.07794   3.11557
 Alpha virt. eigenvalues --    3.13581   3.16644   3.20269   3.21420   3.24054
 Alpha virt. eigenvalues --    3.25001   3.34013   3.35333   3.40064   3.41245
 Alpha virt. eigenvalues --    3.52559   3.54989   3.62287   3.67844   3.71346
 Alpha virt. eigenvalues --    3.77269   3.80333   3.97009   4.04254   4.07840
 Alpha virt. eigenvalues --    4.15340   4.21523   4.45554   4.78825   4.84276
 Alpha virt. eigenvalues --    9.75796   9.78341   9.86114   9.87613  23.38884
 Alpha virt. eigenvalues --   23.60374  23.80840  23.84369  23.88860  23.93933
 Alpha virt. eigenvalues --   23.98185  24.00741  24.05118  24.05991  24.07390
 Alpha virt. eigenvalues --   24.16019  25.80662  25.81471  25.83211  25.84932
 Alpha virt. eigenvalues --   26.10367  26.14641  26.54430  26.61390  26.63186
 Alpha virt. eigenvalues --   26.68469  26.75863  26.86480 215.74900 215.77577
 Alpha virt. eigenvalues --  215.88374 215.90029
          Condensed to atoms (all electrons):
               1          2          3          4          5          6
     1  C   23.253696  -4.702998  -0.918808  -2.175379  -3.049819   2.541140
     2  C   -4.702998  29.374445  -4.730095   3.305869  -0.360044 -11.437968
     3  C   -0.918808  -4.730095  12.252203   0.035602  -1.723189   2.612947
     4  C   -2.175379   3.305869   0.035602  17.158810  -4.707217  -8.308047
     5  C   -3.049819  -0.360044  -1.723189  -4.707217  19.085079   1.844597
     6  C    2.541140 -11.437968   2.612947  -8.308047   1.844597  22.631846
     7  C   10.013235   0.031320  -1.301841   0.161814  -2.063676  -3.748091
     8  C   -3.991282   6.284136  -1.249085   0.981701  -1.969426  -5.372499
     9  C   -6.366235   2.019059   0.617122   0.045071  -0.976408  -2.106235
    10  C   -1.424046   0.361944  -0.008896   0.016210   0.044476   0.039567
    11  C   -4.975119  -2.065346  -0.375386   0.365205   0.952257   1.078032
    12  C   -2.060668 -10.801581   0.907177  -0.606391  -1.012461   7.289009
    13  H   -0.368644   0.552511   0.167761   0.012444  -0.033743  -0.019899
    14  H    0.054797   0.093724   0.263636   0.020597  -0.047770  -0.042762
    15  H    0.068012  -0.025728  -0.071952   0.293098  -0.006502   0.073982
    16  H   -0.283235  -0.063363  -0.052460   0.173970   0.085804   0.263203
    17  H    0.020513   0.007943  -0.001360   0.000255   0.000458   0.001907
    18  H    0.022280  -0.001309   0.000816  -0.000433  -0.001819   0.008940
    19  Cl   0.772507   0.466928   0.090203   0.030725  -0.811980  -1.396910
    20  Cl  -0.553599   0.096286   0.226419  -0.413484  -0.517856   0.850747
    21  Cl  -0.027170  -0.012955  -0.001936  -0.000467   0.000431  -0.026004
    22  Cl   1.248555  -1.878772  -0.591068  -0.109888   0.150498   0.508893
               7          8          9         10         11         12
     1  C   10.013235  -3.991282  -6.366235  -1.424046  -4.975119  -2.060668
     2  C    0.031320   6.284136   2.019059   0.361944  -2.065346 -10.801581
     3  C   -1.301841  -1.249085   0.617122  -0.008896  -0.375386   0.907177
     4  C    0.161814   0.981701   0.045071   0.016210   0.365205  -0.606391
     5  C   -2.063676  -1.969426  -0.976408   0.044476   0.952257  -1.012461
     6  C   -3.748091  -5.372499  -2.106235   0.039567   1.078032   7.289009
     7  C   20.771190   2.231317  -7.746500  -2.851598  -6.109707  -3.328949
     8  C    2.231317  22.803753   0.893531  -5.418100  -1.971712  -6.030581
     9  C   -7.746500   0.893531  22.410598   1.616947  -4.220048  -0.666975
    10  C   -2.851598  -5.418100   1.616947  19.442343   1.295659  -5.756537
    11  C   -6.109707  -1.971712  -4.220048   1.295659  21.006765   0.470315
    12  C   -3.328949  -6.030581  -0.666975  -5.756537   0.470315  28.343321
    13  H   -0.166098   0.140406   0.194771   0.048444  -0.016994  -0.044833
    14  H    0.007393   0.001637  -0.003077  -0.000191   0.000586  -0.000786
    15  H    0.016236   0.000826   0.000207  -0.000038   0.000105   0.003338
    16  H   -0.057973   0.007719  -0.015357   0.048012   0.207299   0.137595
    17  H    0.111865  -0.029734   0.237956   0.035548   0.012926  -0.021480
    18  H    0.064377  -0.007706   0.011281   0.058332   0.217706   0.002821
    19  Cl   0.650708   0.480763   0.388365  -0.462253  -0.326905  -1.340277
    20  Cl  -0.300811  -0.125456  -0.016247   0.000348  -0.036244  -0.027586
    21  Cl  -0.062335  -0.007729   0.222658  -1.154429   0.309696  -0.056163
    22  Cl   0.397434  -1.308700  -0.435986  -0.541867   0.249390   0.798566
              13         14         15         16         17         18
     1  C   -0.368644   0.054797   0.068012  -0.283235   0.020513   0.022280
     2  C    0.552511   0.093724  -0.025728  -0.063363   0.007943  -0.001309
     3  C    0.167761   0.263636  -0.071952  -0.052460  -0.001360   0.000816
     4  C    0.012444   0.020597   0.293098   0.173970   0.000255  -0.000433
     5  C   -0.033743  -0.047770  -0.006502   0.085804   0.000458  -0.001819
     6  C   -0.019899  -0.042762   0.073982   0.263203   0.001907   0.008940
     7  C   -0.166098   0.007393   0.016236  -0.057973   0.111865   0.064377
     8  C    0.140406   0.001637   0.000826   0.007719  -0.029734  -0.007706
     9  C    0.194771  -0.003077   0.000207  -0.015357   0.237956   0.011281
    10  C    0.048444  -0.000191  -0.000038   0.048012   0.035548   0.058332
    11  C   -0.016994   0.000586   0.000105   0.207299   0.012926   0.217706
    12  C   -0.044833  -0.000786   0.003338   0.137595  -0.021480   0.002821
    13  H    0.730569  -0.013842  -0.000501  -0.000256   0.000039  -0.000000
    14  H   -0.013842   0.545746  -0.007397   0.000148   0.000000   0.000000
    15  H   -0.000501  -0.007397   0.524844  -0.000581  -0.000000  -0.000000
    16  H   -0.000256   0.000148  -0.000581   0.702968  -0.000000   0.000047
    17  H    0.000039   0.000000  -0.000000  -0.000000   0.492476  -0.000259
    18  H   -0.000000   0.000000  -0.000000   0.000047  -0.000259   0.492621
    19  Cl   0.001575  -0.000155   0.000318  -0.258085   0.000377  -0.022601
    20  Cl   0.000718  -0.000476  -0.008531  -0.041357  -0.000001   0.000022
    21  Cl   0.000224  -0.000001   0.000000   0.000286  -0.011263  -0.012585
    22  Cl  -0.308537   0.003081   0.000455   0.000579  -0.023805   0.000615
              19         20         21         22
     1  C    0.772507  -0.553599  -0.027170   1.248555
     2  C    0.466928   0.096286  -0.012955  -1.878772
     3  C    0.090203   0.226419  -0.001936  -0.591068
     4  C    0.030725  -0.413484  -0.000467  -0.109888
     5  C   -0.811980  -0.517856   0.000431   0.150498
     6  C   -1.396910   0.850747  -0.026004   0.508893
     7  C    0.650708  -0.300811  -0.062335   0.397434
     8  C    0.480763  -0.125456  -0.007729  -1.308700
     9  C    0.388365  -0.016247   0.222658  -0.435986
    10  C   -0.462253   0.000348  -1.154429  -0.541867
    11  C   -0.326905  -0.036244   0.309696   0.249390
    12  C   -1.340277  -0.027586  -0.056163   0.798566
    13  H    0.001575   0.000718   0.000224  -0.308537
    14  H   -0.000155  -0.000476  -0.000001   0.003081
    15  H    0.000318  -0.008531   0.000000   0.000455
    16  H   -0.258085  -0.041357   0.000286   0.000579
    17  H    0.000377  -0.000001  -0.011263  -0.023805
    18  H   -0.022601   0.000022  -0.012585   0.000615
    19  Cl  18.154329  -0.055384  -0.012797  -0.024426
    20  Cl  -0.055384  17.531016  -0.000048   0.002315
    21  Cl  -0.012797  -0.000048  17.416734  -0.011555
    22  Cl  -0.024426   0.002315  -0.011555  18.221626
 Mulliken charges:
               1
     1  C   -1.097731
     2  C   -0.514005
     3  C   -0.147810
     4  C   -0.280066
     5  C    1.118312
     6  C   -1.286397
     7  C   -0.719312
     8  C   -0.343780
     9  C   -0.104501
    10  C    0.610125
    11  C   -0.068481
    12  C   -0.196875
    13  H    0.123884
    14  H    0.125110
    15  H    0.139808
    16  H    0.145038
    17  H    0.165639
    18  H    0.166854
    19  Cl   0.674974
    20  Cl   0.389208
    21  Cl   0.447409
    22  Cl   0.652597
 Sum of Mulliken charges =  -0.00000
 Mulliken charges with hydrogens summed into heavy atoms:
               1
     1  C   -1.097731
     2  C   -0.390121
     3  C   -0.022699
     4  C   -0.140259
     5  C    1.118312
     6  C   -1.141358
     7  C   -0.719312
     8  C   -0.343780
     9  C    0.061139
    10  C    0.610125
    11  C    0.098372
    12  C   -0.196875
    19  Cl   0.674974
    20  Cl   0.389208
    21  Cl   0.447409
    22  Cl   0.652597
 Electronic spatial extent (au):  <R**2>=           6169.2204
 Charge=             -0.0000 electrons
 Dipole moment (field-independent basis, Debye):
    X=              1.5053    Y=              1.2452    Z=              0.0000  Tot=              1.9536
 Quadrupole moment (field-independent basis, Debye-Ang):
   XX=           -124.5399   YY=           -113.4125   ZZ=           -124.0848
   XY=             -4.9292   XZ=             -0.0000   YZ=              0.0000
 Traceless Quadrupole moment (field-independent basis, Debye-Ang):
   XX=             -3.8608   YY=              7.2666   ZZ=             -3.4057
   XY=             -4.9292   XZ=             -0.0000   YZ=              0.0000
 Octapole moment (field-independent basis, Debye-Ang**2):
  XXX=             16.0279  YYY=              3.6514  ZZZ=              0.0000  XYY=             -4.4694
  XXY=             24.1135  XXZ=              0.0001  XZZ=              5.4695  YZZ=             -5.5257
  YYZ=              0.0001  XYZ=             -0.0001
 Hexadecapole moment (field-independent basis, Debye-Ang**3):
 XXXX=          -6043.9293 YYYY=          -1976.2235 ZZZZ=           -145.1707 XXXY=            -50.4677
 XXXZ=             -0.0002 YYYX=            -13.8133 YYYZ=              0.0001 ZZZX=              0.0002
 ZZZY=             -0.0000 XXYY=          -1281.9473 XXZZ=          -1067.4721 YYZZ=           -386.5225
 XXYZ=              0.0000 YYXZ=             -0.0000 ZZXY=             17.2010
 N-N= 1.453565886104D+03 E-N=-8.351469682796D+03  KE= 2.295978220569D+03
 Calling FoFJK, ICntrl=      2127 FMM=F ISym2X=0 I1Cent= 0 IOpClX= 0 NMat=1 NMatS=1 NMatT=0.
 ***** Axes restored to original set *****
 -------------------------------------------------------------------
 Center     Atomic                   Forces (Hartrees/Bohr)
 Number     Number              X              Y              Z
 -------------------------------------------------------------------
      1        6          -0.011365283   -0.022015879   -0.000390529
      2        6           0.008762292    0.050249355    0.006550670
      3        6          -0.026380458    0.001351294    0.008945062
      4        6          -0.003807359   -0.003614404    0.000575317
      5        6           0.012629267   -0.019594340   -0.007840711
      6        6           0.038229525    0.035195624   -0.005985042
      7        6           0.027367975    0.048586662    0.000108594
      8        6          -0.020716733   -0.006156916    0.005669047
      9        6           0.000500815    0.004681485    0.000714155
     10        6           0.008106656    0.013962926   -0.000048367
     11        6           0.003832222    0.002635147   -0.000767501
     12        6           0.004282501   -0.021334896   -0.005417886
     13        1           0.003617612    0.052131090    0.008598835
     14        1           0.009151173    0.000914488   -0.002843136
     15        1           0.004480118    0.009060078    0.000225590
     16        1           0.041319028    0.028350193   -0.008288705
     17        1           0.004046352   -0.007090044   -0.002664637
     18        1          -0.008168568    0.000058899    0.002702183
     19       17          -0.087225603   -0.062871384    0.016929627
     20       17           0.000224104   -0.001438330   -0.000343931
     21       17           0.003399186    0.005774839   -0.000035380
     22       17          -0.012284823   -0.108835889   -0.016393254
 -------------------------------------------------------------------
 Cartesian Forces:  Max     0.108835889 RMS     0.025138853

 GradGradGradGradGradGradGradGradGradGradGradGradGradGradGradGradGradGrad
 Berny optimization.
 FormGI is forming the generalized inverse of G from B-inverse, IUseBI=4.
 Internal  Forces:  Max     0.203985495 RMS     0.050934208
 Search for a local minimum.
 Step number   1 out of a maximum of  121
 All quantities printed in internal units (Hartrees-Bohrs-Radians)
 Mixed Optimization -- RFO/linear search
 Second derivative matrix not updated -- first step.
 ITU=  0
     Eigenvalues ---    0.00237   0.01506   0.01506   0.02070   0.02070
     Eigenvalues ---    0.02070   0.02070   0.02070   0.02070   0.02070
     Eigenvalues ---    0.02070   0.02070   0.02070   0.02070   0.02070
     Eigenvalues ---    0.02070   0.02070   0.02070   0.02070   0.16000
     Eigenvalues ---    0.16000   0.16000   0.16000   0.16000   0.16000
     Eigenvalues ---    0.22000   0.23478   0.23478   0.23493   0.23493
     Eigenvalues ---    0.25000   0.25000   0.25000   0.25000   0.25000
     Eigenvalues ---    0.25000   0.25000   0.28519   0.29539   0.29539
     Eigenvalues ---    0.29539   0.29539   0.37230   0.37230   0.37230
     Eigenvalues ---    0.37230   0.37230   0.37230   0.41364   0.41554
     Eigenvalues ---    0.41554   0.41716   0.45389   0.45389   0.45389
     Eigenvalues ---    0.45389   0.45389   0.45389   0.45389   0.45389
 RFO step:  Lambda=-4.13191473D-01 EMin= 2.36824242D-03
 Linear search not attempted -- first point.
 Maximum step size (   0.300) exceeded in Quadratic search.
    -- Step size scaled by   0.388
 Iteration  1 RMS(Cart)=  0.09768181 RMS(Int)=  0.00391686
 Iteration  2 RMS(Cart)=  0.00448526 RMS(Int)=  0.00015948
 Iteration  3 RMS(Cart)=  0.00000823 RMS(Int)=  0.00015944
 Iteration  4 RMS(Cart)=  0.00000000 RMS(Int)=  0.00015944
 Variable       Old X    -DE/DX   Delta X   Delta X   Delta X     New X
                                 (Linear)    (Quad)   (Total)
    R1        2.64826   0.03440   0.00000   0.01589   0.01603   2.66429
    R2        2.64826   0.03314   0.00000   0.01533   0.01547   2.66374
    R3        2.91018   0.15153   0.00000   0.08417   0.08417   2.99434
    R4        2.64826  -0.00428   0.00000  -0.00192  -0.00192   2.64634
    R5        2.02201  -0.04489   0.00000  -0.02217  -0.02217   1.99984
    R6        2.64826  -0.04086   0.00000  -0.01878  -0.01893   2.62934
    R7        2.02201   0.00960   0.00000   0.00474   0.00474   2.02675
    R8        2.64826  -0.04284   0.00000  -0.01967  -0.01981   2.62846
    R9        2.02201   0.01008   0.00000   0.00498   0.00498   2.02699
   R10        2.64826  -0.00908   0.00000  -0.00406  -0.00405   2.64421
   R11        3.32592  -0.00142   0.00000  -0.00077  -0.00077   3.32514
   R12        2.02201  -0.04245   0.00000  -0.02096  -0.02096   2.00104
   R13        2.64826   0.14219   0.00000   0.06568   0.06600   2.71426
   R14        2.64826   0.14085   0.00000   0.06508   0.06539   2.71365
   R15        2.64826  -0.01140   0.00000  -0.00509  -0.00510   2.64316
   R16        3.32592  -0.00893   0.00000  -0.00489  -0.00489   3.32103
   R17        2.64826  -0.06336   0.00000  -0.03041  -0.03073   2.61753
   R18        2.02201   0.00858   0.00000   0.00424   0.00424   2.02625
   R19        2.64826  -0.06365   0.00000  -0.03055  -0.03087   2.61740
   R20        3.32592  -0.00670   0.00000  -0.00367  -0.00367   3.32225
   R21        2.64826  -0.01180   0.00000  -0.00529  -0.00529   2.64297
   R22        2.02201   0.00860   0.00000   0.00425   0.00425   2.02625
   R23        3.32592  -0.00889   0.00000  -0.00487  -0.00487   3.32105
    A1        2.09440  -0.11208   0.00000  -0.06463  -0.06433   2.03007
    A2        2.09440   0.06070   0.00000   0.03504   0.03489   2.12928
    A3        2.09440   0.05139   0.00000   0.02959   0.02944   2.12384
    A4        2.09440   0.05271   0.00000   0.03255   0.03269   2.12709
    A5        2.09440   0.00206   0.00000   0.00295   0.00288   2.09728
    A6        2.09440  -0.05476   0.00000  -0.03550  -0.03557   2.05882
    A7        2.09440   0.01653   0.00000   0.00899   0.00884   2.10324
    A8        2.09440  -0.00754   0.00000  -0.00400  -0.00393   2.09047
    A9        2.09440  -0.00900   0.00000  -0.00499  -0.00491   2.08948
   A10        2.09440  -0.02920   0.00000  -0.01971  -0.02001   2.07439
   A11        2.09440   0.01537   0.00000   0.01038   0.01052   2.10492
   A12        2.09440   0.01384   0.00000   0.00934   0.00948   2.10388
   A13        2.09440   0.02069   0.00000   0.01104   0.01090   2.10530
   A14        2.09440  -0.00954   0.00000  -0.00505  -0.00498   2.08941
   A15        2.09440  -0.01115   0.00000  -0.00599  -0.00592   2.08847
   A16        2.09440   0.05136   0.00000   0.03175   0.03190   2.12630
   A17        2.09440   0.00251   0.00000   0.00320   0.00313   2.09752
   A18        2.09440  -0.05387   0.00000  -0.03495  -0.03503   2.05937
   A19        2.09440   0.07751   0.00000   0.04272   0.04238   2.13677
   A20        2.09440   0.06936   0.00000   0.03794   0.03761   2.13200
   A21        2.09440  -0.14687   0.00000  -0.08066  -0.07999   2.01441
   A22        2.09440   0.04083   0.00000   0.02638   0.02670   2.12109
   A23        2.09440   0.16315   0.00000   0.09418   0.09402   2.18842
   A24        2.09440  -0.20399   0.00000  -0.12056  -0.12072   1.97368
   A25        2.09440   0.03556   0.00000   0.01861   0.01828   2.11268
   A26        2.09440  -0.01804   0.00000  -0.00949  -0.00932   2.08507
   A27        2.09440  -0.01751   0.00000  -0.00913  -0.00896   2.08543
   A28        2.09440  -0.00645   0.00000  -0.00957  -0.01022   2.08417
   A29        2.09440   0.00320   0.00000   0.00477   0.00509   2.09949
   A30        2.09440   0.00325   0.00000   0.00480   0.00513   2.09952
   A31        2.09440   0.03477   0.00000   0.01811   0.01778   2.11217
   A32        2.09440  -0.01714   0.00000  -0.00889  -0.00872   2.08567
   A33        2.09440  -0.01763   0.00000  -0.00922  -0.00906   2.08534
   A34        2.09440   0.04215   0.00000   0.02713   0.02745   2.12184
   A35        2.09440   0.15933   0.00000   0.09196   0.09180   2.18619
   A36        2.09440  -0.20148   0.00000  -0.11909  -0.11924   1.97515
    D1        0.00000   0.00000   0.00000   0.00000   0.00000   0.00000
    D2        3.14159  -0.00000   0.00000   0.00000   0.00000   3.14159
    D3       -3.14159  -0.00000   0.00000  -0.00000  -0.00000  -3.14159
    D4       -0.00000  -0.00000   0.00000  -0.00000  -0.00000  -0.00000
    D5       -0.00000  -0.00000   0.00000  -0.00000  -0.00000  -0.00000
    D6        3.14159  -0.00000   0.00000  -0.00000  -0.00000   3.14159
    D7        3.14159   0.00000   0.00000   0.00000   0.00000   3.14159
    D8        0.00000  -0.00000   0.00000  -0.00000  -0.00000  -0.00000
    D9       -0.00000  -0.00000   0.00000  -0.00000  -0.00000  -0.00000
   D10        3.14159  -0.00000   0.00000  -0.00000  -0.00000   3.14159
   D11        3.14159  -0.00000   0.00000  -0.00000  -0.00000   3.14159
   D12       -0.00000  -0.00000   0.00000  -0.00000  -0.00000  -0.00000
   D13        0.00000  -0.00000   0.00000  -0.00000  -0.00000   0.00000
   D14        3.14159  -0.00000   0.00000  -0.00000  -0.00000   3.14159
   D15       -3.14159  -0.00000   0.00000  -0.00000  -0.00000  -3.14159
   D16        0.00000  -0.00000   0.00000  -0.00000  -0.00000   0.00000
   D17       -0.00000  -0.00000   0.00000   0.00000   0.00000  -0.00000
   D18        3.14159   0.00000   0.00000   0.00000   0.00000   3.14159
   D19        3.14159  -0.00000   0.00000  -0.00000  -0.00000   3.14159
   D20        0.00000  -0.00000   0.00000  -0.00000  -0.00000   0.00000
   D21        0.00000   0.00000   0.00000   0.00000   0.00000   0.00000
   D22       -3.14159   0.00000   0.00000   0.00000   0.00000  -3.14159
   D23       -3.14159  -0.00000   0.00000  -0.00000  -0.00000  -3.14159
   D24        0.00000   0.00000   0.00000   0.00000   0.00000   0.00000
   D25       -0.00000   0.00000   0.00000   0.00000   0.00000  -0.00000
   D26        3.14159   0.00000   0.00000   0.00000   0.00000   3.14159
   D27        3.14159   0.00000   0.00000  -0.00000  -0.00000   3.14159
   D28       -0.00000   0.00000   0.00000   0.00000   0.00000  -0.00000
   D29        3.14159   0.00000   0.00000   0.00000   0.00000   3.14159
   D30        0.00000   0.00000   0.00000   0.00000   0.00000   0.00000
   D31        0.00000   0.00000   0.00000   0.00000   0.00000   0.00000
   D32       -3.14159  -0.00000   0.00000  -0.00000  -0.00000  -3.14159
   D33       -3.14159  -0.00000   0.00000  -0.00000  -0.00000  -3.14159
   D34        0.00000  -0.00000   0.00000  -0.00000  -0.00000  -0.00000
   D35       -0.00000   0.00000   0.00000   0.00000   0.00000  -0.00000
   D36        3.14159  -0.00000   0.00000  -0.00000  -0.00000   3.14159
   D37       -0.00000  -0.00000   0.00000  -0.00000  -0.00000  -0.00000
   D38        3.14159  -0.00000   0.00000  -0.00000  -0.00000   3.14159
   D39        3.14159   0.00000   0.00000   0.00000   0.00000   3.14159
   D40       -0.00000   0.00000   0.00000   0.00000   0.00000  -0.00000
   D41       -0.00000   0.00000   0.00000   0.00000   0.00000  -0.00000
   D42       -3.14159  -0.00000   0.00000  -0.00000  -0.00000  -3.14159
   D43        3.14159   0.00000   0.00000   0.00000   0.00000   3.14159
   D44        0.00000   0.00000   0.00000   0.00000   0.00000   0.00000
   D45        0.00000   0.00000   0.00000   0.00000   0.00000   0.00000
   D46       -3.14159  -0.00000   0.00000  -0.00000  -0.00000  -3.14159
   D47        3.14159   0.00000   0.00000   0.00000   0.00000   3.14159
   D48        0.00000   0.00000   0.00000   0.00000   0.00000   0.00000
   D49        0.00000  -0.00000   0.00000  -0.00000  -0.00000   0.00000
   D50       -3.14159   0.00000   0.00000   0.00000   0.00000  -3.14159
   D51        3.14159   0.00000   0.00000   0.00000   0.00000   3.14159
   D52       -0.00000   0.00000   0.00000   0.00000   0.00000  -0.00000
         Item               Value     Threshold  Converged?
 Maximum Force            0.203985     0.000450     NO 
 RMS     Force            0.050934     0.000300     NO 
 Maximum Displacement     0.554419     0.001800     NO 
 RMS     Displacement     0.099091     0.001200     NO 
 Predicted change in Energy=-1.477632D-01
 GradGradGradGradGradGradGradGradGradGradGradGradGradGradGradGradGradGrad

                          Input orientation:                          
 ---------------------------------------------------------------------
 Center     Atomic      Atomic             Coordinates (Angstroms)
 Number     Number       Type             X           Y           Z
 ---------------------------------------------------------------------
      1          6           0        0.178203    2.421321    0.444469
      2          6           0        1.519523    2.500069    0.017354
      3          6           0        2.224180    3.710237    0.012483
      4          6           0        1.611690    4.885917    0.435075
      5          6           0        0.288746    4.837672    0.861862
      6          6           0       -0.415043    3.628304    0.866597
      7          6           0       -0.621924    1.053654    0.451215
      8          6           0       -0.033333   -0.185143    0.024641
      9          6           0       -0.757217   -1.381877    0.038372
     10          6           0       -2.074266   -1.415257    0.466015
     11          6           0       -2.682836   -0.244236    0.886442
     12          6           0       -1.988093    0.969607    0.885525
     13          1           0        2.024545    1.630479   -0.312343
     14          1           0        3.243811    3.731506   -0.319444
     15          1           0        2.149971    5.813704    0.431983
     16          1           0       -1.420094    3.639447    1.199808
     17          1           0       -0.284954   -2.287735   -0.287347
     18          1           0       -3.702322   -0.268492    1.217767
     19         17           0       -2.955599    2.320447    1.457981
     20         17           0       -0.508043    6.310951    1.401060
     21         17           0       -2.965543   -2.930617    0.475057
     22         17           0        1.613859   -0.382845   -0.555165
 ---------------------------------------------------------------------
                    Distance matrix (angstroms):
                    1          2          3          4          5
     1  C    0.000000
     2  C    1.409882   0.000000
     3  C    2.456407   1.400382   0.000000
     4  C    2.851176   2.423892   1.391385   0.000000
     5  C    2.454626   2.773516   2.395508   1.390919   0.000000
     6  C    1.409588   2.395135   2.775197   2.423933   1.399254
     7  C    1.584539   2.620333   3.917936   4.435711   3.913661
     8  C    2.648521   3.101899   4.502277   5.346981   5.102288
     9  C    3.937542   4.500388   5.900764   6.712252   6.360421
    10  C    4.448979   5.333516   6.704701   7.300139   6.696241
    11  C    3.935236   5.093755   6.362426   6.705606   5.886993
    12  C    2.644777   3.924207   5.100637   5.338429   4.488483
    13  H    2.146432   1.058269   2.114416   3.365554   3.831167
    14  H    3.420248   2.145469   1.072509   2.136768   3.369198
    15  H    3.923810   3.398464   2.146174   1.072635   2.145132
    16  H    2.146840   3.367154   3.833469   3.366039   2.114258
    17  H    4.788035   5.125627   6.508557   7.455229   7.240251
    18  H    4.784512   6.031051   7.239227   7.444411   6.490624
    19  Cl   3.295163   4.704719   5.554375   5.337424   4.149404
    20  Cl   4.063892   4.533043   4.019565   2.730772   1.759590
    21  Cl   6.207038   7.058162   8.440861   9.058193   8.431271
    22  Cl   3.305105   2.940726   4.177084   5.361010   5.569352
                    6          7          8          9         10
     6  C    0.000000
     7  C    2.616135   0.000000
     8  C    3.923897   1.436323   0.000000
     9  C    5.089690   2.473975   1.398702   0.000000
    10  C    5.324565   2.864444   2.423510   1.385139   0.000000
    11  C    4.487744   2.474126   2.786766   2.391957   1.385067
    12  C    3.089258   1.436003   2.428097   2.786072   2.423013
    13  H    3.366421   2.814169   2.764941   4.115275   5.165520
    14  H    3.847669   4.765366   5.118418   6.502533   7.442315
    15  H    3.397670   5.508343   6.396789   7.770653   8.372766
    16  H    1.058906   2.807809   4.234574   5.196348   5.149411
    17  H    6.028933   3.438591   2.140454   1.072243   2.128475
    18  H    5.110239   3.438680   3.859013   3.362178   2.128560
    19  Cl   2.917987   2.839785   4.107565   4.533803   3.964371
    20  Cl   2.736949   5.343626   6.657260   7.816559   7.938618
    21  Cl   7.048247   4.622503   4.042073   2.732397   1.758059
    22  Cl   4.714569   2.841664   1.757413   2.640521   3.963703
                   11         12         13         14         15
    11  C    0.000000
    12  C    1.398600   0.000000
    13  H    5.206830   4.239445   0.000000
    14  H    7.237805   6.037620   2.429192   0.000000
    15  H    7.762808   6.387061   4.250779   2.469145   0.000000
    16  H    4.095816   2.747625   4.264750   4.905977   4.249978
    17  H    3.362069   3.858314   4.548276   6.977426   8.489971
    18  H    1.072248   2.140527   6.224494   8.161602   8.477021
    19  Cl   2.641714   1.757425   5.330284   6.601742   6.270754
    20  Cl   6.925678   5.566532   5.590757   4.867245   2.872525
    21  Cl   2.732362   4.041737   6.806215   9.141727  10.130818
    22  Cl   4.534207   4.108377   2.069082   4.431725   6.297546
                   16         17         18         19         20
    16  H    0.000000
    17  H    6.215438   0.000000
    18  H    4.525580   4.245128   0.000000
    19  Cl   2.040634   5.604807   2.705162   0.000000
    20  Cl   2.830065   8.765722   7.316151   4.681654   0.000000
    21  Cl   6.788182   2.860089   2.860310   5.342276   9.607463
    22  Cl   5.335132   2.702929   5.605188   5.678070   7.289456
                   21         22
    21  Cl   0.000000
    22  Cl   5.340732   0.000000
 Stoichiometry    C12H6Cl4
 Framework group  C1[X(C12H6Cl4)]
 Deg. of freedom    60
 Full point group                 C1      NOp   1
 Largest Abelian subgroup         C1      NOp   1
 Largest concise Abelian subgroup C1      NOp   1
                         Standard orientation:                         
 ---------------------------------------------------------------------
 Center     Atomic      Atomic             Coordinates (Angstroms)
 Number     Number       Type             X           Y           Z
 ---------------------------------------------------------------------
      1          6           0       -1.070961    0.561485   -0.000000
      2          6           0       -1.530899    1.894235    0.000002
      3          6           0       -2.896300    2.205283    0.000004
      4          6           0       -3.851243    1.193336    0.000004
      5          6           0       -3.425897   -0.130951   -0.000000
      6          6           0       -2.061513   -0.441385   -0.000002
      7          6           0        0.473220    0.206144   -0.000002
      8          6           0        1.495694    1.214891   -0.000003
      9          6           0        2.853686    0.879889   -0.000003
     10          6           0        3.263052   -0.443375   -0.000002
     11          6           0        2.311466   -1.449800   -0.000000
     12          6           0        0.945371   -1.150019   -0.000000
     13          1           0       -0.839472    2.695398    0.000004
     14          1           0       -3.208826    3.231247    0.000007
     15          1           0       -4.897483    1.429827    0.000006
     16          1           0       -1.784328   -1.463369   -0.000005
     17          1           0        3.589370    1.659938   -0.000004
     18          1           0        2.626821   -2.474625    0.000003
     19         17           0       -0.076290   -2.579968    0.000004
     20         17           0       -4.614180   -1.428694   -0.000004
     21         17           0        4.975346   -0.841898    0.000000
     22         17           0        1.213939    2.949570   -0.000000
 ---------------------------------------------------------------------
 Rotational constants (GHZ):           0.5880117           0.1972044           0.1476772
 Standard basis: 6-311+G(d,p) (5D, 7F)
 There are   436 symmetry adapted cartesian basis functions of A   symmetry.
 There are   420 symmetry adapted basis functions of A   symmetry.
   420 basis functions,   692 primitive gaussians,   436 cartesian basis functions
    73 alpha electrons       73 beta electrons
       nuclear repulsion energy      1427.2115521840 Hartrees.
 NAtoms=   22 NActive=   22 NUniq=   22 SFac= 1.00D+00 NAtFMM=   60 NAOKFM=F Big=F
 Integral buffers will be    131072 words long.
 Raffenetti 2 integral format.
 Two-electron integral symmetry is turned on.
 One-electron integrals computed using PRISM.
 NBasis=   420 RedAO= T EigKep=  1.31D-06  NBF=   420
 NBsUse=   415 1.00D-06 EigRej=  6.78D-07 NBFU=   415
 Initial guess from the checkpoint file:  "/scratch/gour/Gau-24028.chk"
 B after Tr=     0.000000    0.000000    0.000000
         Rot=    1.000000   -0.000000   -0.000000   -0.000002 Ang=  -0.00 deg.
 ExpMin= 4.38D-02 ExpMax= 1.06D+05 ExpMxC= 3.62D+03 IAcc=3 IRadAn=         5 AccDes= 0.00D+00
 Harris functional with IExCor=  402 and IRadAn=       5 diagonalized for initial guess.
 HarFok:  IExCor=  402 AccDes= 0.00D+00 IRadAn=         5 IDoV= 1 UseB2=F ITyADJ=14
 ICtDFT=  3500011 ScaDFX=  1.000000  1.000000  1.000000  1.000000
 FoFCou: FMM=F IPFlag=           0 FMFlag=      100000 FMFlg1=           0
         NFxFlg=           0 DoJE=T BraDBF=F KetDBF=T FulRan=T
         wScrn=  0.000000 ICntrl=       500 IOpCl=  0 I1Cent=   200000004 NGrid=           0
         NMat0=    1 NMatS0=      1 NMatT0=    0 NMatD0=    1 NMtDS0=    0 NMtDT0=    0
 Petite list used in FoFCou.
 Requested convergence on RMS density matrix=1.00D-08 within  32 cycles.
 Requested convergence on MAX density matrix=1.00D-06.
 Requested convergence on             energy=1.00D-06.
 No special actions if energy rises.
 SCF Done:  E(RB3LYP) =  -2301.86342659     A.U. after   16 cycles
            NFock= 16  Conv=0.33D-08     -V/T= 2.0028
 QCSCF skips out because SCF is already converged.
 Calling FoFJK, ICntrl=      2127 FMM=F ISym2X=0 I1Cent= 0 IOpClX= 0 NMat=1 NMatS=1 NMatT=0.
 ***** Axes restored to original set *****
 -------------------------------------------------------------------
 Center     Atomic                   Forces (Hartrees/Bohr)
 Number     Number              X              Y              Z
 -------------------------------------------------------------------
      1        6          -0.010259507   -0.020311885   -0.000434804
      2        6          -0.001833202    0.015588523    0.003531766
      3        6          -0.018014589   -0.004939160    0.005007479
      4        6          -0.001670460   -0.000998987    0.000362510
      5        6           0.003296103   -0.013972018   -0.003709939
      6        6           0.012360725    0.007701890   -0.002625852
      7        6           0.017412468    0.031105089    0.000105336
      8        6          -0.021142126    0.005483780    0.007995414
      9        6           0.002013616    0.002227907   -0.000245073
     10        6           0.003340265    0.005741180   -0.000022169
     11        6           0.000887125    0.002801525    0.000234019
     12        6           0.014575024   -0.015978741   -0.007802874
     13        1           0.006020364    0.000920587   -0.001810589
     14        1           0.007120191   -0.000473377   -0.002434672
     15        1           0.003181760    0.006749408    0.000219370
     16        1          -0.001027876    0.006734432    0.001603311
     17        1           0.003998109   -0.004885554   -0.002234722
     18        1          -0.006207050    0.001144944    0.002259912
     19       17          -0.013819043   -0.011553426    0.002383012
     20       17           0.000026144   -0.001826850   -0.000351676
     21       17           0.002660430    0.004494674   -0.000032414
     22       17          -0.002918471   -0.015753940   -0.001997343
 -------------------------------------------------------------------
 Cartesian Forces:  Max     0.031105089 RMS     0.008624439

 GradGradGradGradGradGradGradGradGradGradGradGradGradGradGradGradGradGrad
 Berny optimization.
 Using GEDIIS/GDIIS optimizer.
 FormGI is forming the generalized inverse of G from B-inverse, IUseBI=4.
 Internal  Forces:  Max     0.036654477 RMS     0.007917992
 Search for a local minimum.
 Step number   2 out of a maximum of  121
 All quantities printed in internal units (Hartrees-Bohrs-Radians)
 Mixed Optimization -- RFO/linear search
 Update second derivatives using D2CorX and points    1    2
 DE= -7.98D-02 DEPred=-1.48D-01 R= 5.40D-01
 TightC=F SS=  1.41D+00  RLast= 3.00D-01 DXNew= 5.0454D-01 8.9996D-01
 Trust test= 5.40D-01 RLast= 3.00D-01 DXMaxT set to 5.05D-01
 ITU=  1  0
 Use linear search instead of GDIIS.
     Eigenvalues ---    0.00237   0.01460   0.01468   0.02070   0.02070
     Eigenvalues ---    0.02070   0.02070   0.02070   0.02070   0.02070
     Eigenvalues ---    0.02070   0.02070   0.02070   0.02070   0.02070
     Eigenvalues ---    0.02070   0.02070   0.02070   0.02070   0.15999
     Eigenvalues ---    0.16000   0.16000   0.16000   0.16000   0.16086
     Eigenvalues ---    0.22000   0.23454   0.23469   0.23492   0.23667
     Eigenvalues ---    0.24965   0.25000   0.25000   0.25000   0.25000
     Eigenvalues ---    0.25000   0.27841   0.29535   0.29536   0.29539
     Eigenvalues ---    0.29539   0.36241   0.37194   0.37230   0.37230
     Eigenvalues ---    0.37230   0.37230   0.38307   0.41229   0.41429
     Eigenvalues ---    0.41699   0.45065   0.45340   0.45389   0.45389
     Eigenvalues ---    0.45389   0.45389   0.45389   0.45389   1.58761
 RFO step:  Lambda=-1.26137744D-02 EMin= 2.36824242D-03
 Quartic linear search produced a step of  0.35570.
 Iteration  1 RMS(Cart)=  0.05656511 RMS(Int)=  0.00199796
 Iteration  2 RMS(Cart)=  0.00230992 RMS(Int)=  0.00012404
 Iteration  3 RMS(Cart)=  0.00000154 RMS(Int)=  0.00012404
 Iteration  4 RMS(Cart)=  0.00000000 RMS(Int)=  0.00012404
 Variable       Old X    -DE/DX   Delta X   Delta X   Delta X     New X
                                 (Linear)    (Quad)   (Total)
    R1        2.66429   0.00302   0.00570  -0.00713  -0.00141   2.66288
    R2        2.66374   0.00270   0.00550  -0.00737  -0.00183   2.66190
    R3        2.99434  -0.00457   0.02994  -0.11270  -0.08276   2.91158
    R4        2.64634  -0.00733  -0.00068  -0.01945  -0.02015   2.62619
    R5        1.99984   0.00268  -0.00789   0.03265   0.02476   2.02460
    R6        2.62934  -0.00727  -0.00673  -0.00237  -0.00914   2.62020
    R7        2.02675   0.00751   0.00169   0.02149   0.02317   2.04992
    R8        2.62846  -0.00868  -0.00704  -0.00547  -0.01253   2.61593
    R9        2.02699   0.00743   0.00177   0.02096   0.02273   2.04971
   R10        2.64421  -0.00907  -0.00144  -0.02211  -0.02354   2.62067
   R11        3.32514  -0.00165  -0.00028  -0.00641  -0.00669   3.31845
   R12        2.00104   0.00155  -0.00746   0.02741   0.01995   2.02100
   R13        2.71426   0.00860   0.02347  -0.04037  -0.01662   2.69764
   R14        2.71365   0.01097   0.02326  -0.03274  -0.00925   2.70440
   R15        2.64316  -0.00715  -0.00181  -0.01567  -0.01744   2.62572
   R16        3.32103  -0.00030  -0.00174   0.00397   0.00223   3.32326
   R17        2.61753  -0.01247  -0.01093  -0.00694  -0.01812   2.59942
   R18        2.02625   0.00657   0.00151   0.01868   0.02019   2.04643
   R19        2.61740  -0.01227  -0.01098  -0.00610  -0.01736   2.60003
   R20        3.32225  -0.00522  -0.00130  -0.01900  -0.02030   3.30195
   R21        2.64297  -0.00663  -0.00188  -0.01374  -0.01566   2.62731
   R22        2.02625   0.00657   0.00151   0.01870   0.02021   2.04646
   R23        3.32105  -0.00050  -0.00173   0.00310   0.00137   3.32242
    A1        2.03007  -0.01456  -0.02288  -0.00199  -0.02482   2.00525
    A2        2.12928   0.00494   0.01241  -0.01409  -0.00171   2.12757
    A3        2.12384   0.00961   0.01047   0.01609   0.02653   2.15037
    A4        2.12709   0.00640   0.01163  -0.00014   0.01148   2.13857
    A5        2.09728   0.00256   0.00102   0.02152   0.02254   2.11982
    A6        2.05882  -0.00896  -0.01265  -0.02138  -0.03403   2.02479
    A7        2.10324   0.00461   0.00314   0.01498   0.01807   2.12130
    A8        2.09047  -0.00295  -0.00140  -0.01313  -0.01450   2.07597
    A9        2.08948  -0.00166  -0.00175  -0.00185  -0.00357   2.08591
   A10        2.07439  -0.00863  -0.00712  -0.02963  -0.03680   2.03759
   A11        2.10492   0.00501   0.00374   0.01958   0.02335   2.12826
   A12        2.10388   0.00363   0.00337   0.01006   0.01346   2.11734
   A13        2.10530   0.00768   0.00388   0.02647   0.03035   2.13565
   A14        2.08941  -0.00241  -0.00177  -0.00637  -0.00815   2.08127
   A15        2.08847  -0.00527  -0.00211  -0.02010  -0.02221   2.06627
   A16        2.12630   0.00450   0.01135  -0.00968   0.00172   2.12801
   A17        2.09752   0.00458   0.00111   0.03485   0.03594   2.13346
   A18        2.05937  -0.00908  -0.01246  -0.02517  -0.03766   2.02171
   A19        2.13677   0.00854   0.01507  -0.00672   0.00806   2.14484
   A20        2.13200   0.01880   0.01338   0.05157   0.06466   2.19666
   A21        2.01441  -0.02734  -0.02845  -0.04485  -0.07272   1.94169
   A22        2.12109   0.01443   0.00950   0.04794   0.05775   2.17885
   A23        2.18842   0.01959   0.03344  -0.00578   0.02751   2.21593
   A24        1.97368  -0.03402  -0.04294  -0.04216  -0.08526   1.88841
   A25        2.11268   0.00016   0.00650  -0.02394  -0.01766   2.09502
   A26        2.08507  -0.00141  -0.00332   0.00177  -0.00144   2.08363
   A27        2.08543   0.00125  -0.00319   0.02217   0.01910   2.10453
   A28        2.08417  -0.00103  -0.00364  -0.00045  -0.00463   2.07954
   A29        2.09949   0.00049   0.00181   0.00011   0.00220   2.10169
   A30        2.09952   0.00054   0.00182   0.00034   0.00244   2.10196
   A31        2.11217   0.00079   0.00632  -0.01898  -0.01299   2.09919
   A32        2.08567   0.00094  -0.00310   0.01973   0.01680   2.10247
   A33        2.08534  -0.00173  -0.00322  -0.00076  -0.00381   2.08152
   A34        2.12184   0.01299   0.00976   0.04027   0.05024   2.17209
   A35        2.18619   0.02366   0.03265   0.01743   0.04998   2.23617
   A36        1.97515  -0.03665  -0.04241  -0.05770  -0.10022   1.87493
    D1        0.00000  -0.00000   0.00000  -0.00000  -0.00000   0.00000
    D2        3.14159   0.00000   0.00000   0.00000   0.00000  -3.14159
    D3       -3.14159  -0.00000  -0.00000  -0.00000  -0.00000   3.14159
    D4       -0.00000  -0.00000  -0.00000   0.00000   0.00000  -0.00000
    D5       -0.00000   0.00000  -0.00000   0.00000   0.00000  -0.00000
    D6        3.14159  -0.00000  -0.00000  -0.00000  -0.00000   3.14159
    D7        3.14159   0.00000   0.00000   0.00000   0.00000  -3.14159
    D8       -0.00000  -0.00000  -0.00000  -0.00000  -0.00000  -0.00000
    D9       -0.00000  -0.00000  -0.00000  -0.00001  -0.00001  -0.00002
   D10        3.14159  -0.00000  -0.00000  -0.00001  -0.00001   3.14158
   D11        3.14159  -0.00000  -0.00000  -0.00001  -0.00001   3.14158
   D12       -0.00000  -0.00000  -0.00000  -0.00001  -0.00001  -0.00002
   D13        0.00000  -0.00000  -0.00000  -0.00000  -0.00000  -0.00000
   D14        3.14159   0.00000  -0.00000   0.00000   0.00000   3.14159
   D15       -3.14159  -0.00000  -0.00000  -0.00000  -0.00000  -3.14159
   D16        0.00000  -0.00000  -0.00000  -0.00000  -0.00000   0.00000
   D17       -0.00000   0.00000   0.00000   0.00000   0.00000  -0.00000
   D18        3.14159   0.00000   0.00000   0.00000   0.00000  -3.14159
   D19        3.14159   0.00000  -0.00000   0.00000   0.00000   3.14159
   D20        0.00000  -0.00000  -0.00000  -0.00000  -0.00000  -0.00000
   D21        0.00000  -0.00000   0.00000  -0.00000  -0.00000   0.00000
   D22       -3.14159  -0.00000   0.00000  -0.00000  -0.00000  -3.14159
   D23       -3.14159  -0.00000  -0.00000  -0.00000  -0.00000  -3.14159
   D24        0.00000   0.00000   0.00000   0.00000   0.00000   0.00000
   D25       -0.00000   0.00000   0.00000   0.00000   0.00000  -0.00000
   D26        3.14159   0.00000   0.00000   0.00000   0.00000  -3.14159
   D27        3.14159   0.00000  -0.00000   0.00000   0.00000   3.14159
   D28       -0.00000   0.00000   0.00000   0.00000   0.00000   0.00000
   D29        3.14159   0.00000   0.00000   0.00000   0.00000  -3.14159
   D30        0.00000  -0.00000   0.00000  -0.00000  -0.00000   0.00000
   D31        0.00000   0.00000   0.00000   0.00000   0.00000   0.00000
   D32       -3.14159  -0.00000  -0.00000  -0.00000  -0.00000   3.14159
   D33       -3.14159  -0.00000  -0.00000  -0.00000  -0.00000   3.14159
   D34       -0.00000  -0.00000  -0.00000  -0.00000  -0.00000  -0.00000
   D35       -0.00000   0.00000   0.00000   0.00000   0.00000  -0.00000
   D36        3.14159  -0.00000  -0.00000  -0.00000  -0.00000   3.14159
   D37       -0.00000  -0.00000  -0.00000  -0.00000  -0.00000  -0.00000
   D38        3.14159  -0.00000  -0.00000  -0.00000  -0.00000   3.14159
   D39        3.14159   0.00000   0.00000   0.00000   0.00000  -3.14159
   D40       -0.00000   0.00000   0.00000   0.00000   0.00000   0.00000
   D41       -0.00000   0.00000   0.00000   0.00000   0.00000   0.00000
   D42       -3.14159  -0.00000  -0.00000  -0.00000  -0.00000  -3.14159
   D43        3.14159   0.00000   0.00000   0.00000   0.00000  -3.14159
   D44        0.00000  -0.00000   0.00000  -0.00000  -0.00000   0.00000
   D45        0.00000   0.00000   0.00000   0.00000   0.00000   0.00000
   D46       -3.14159  -0.00000  -0.00000  -0.00000  -0.00000  -3.14159
   D47        3.14159   0.00000   0.00000   0.00000   0.00000  -3.14159
   D48        0.00000  -0.00000   0.00000  -0.00000  -0.00000   0.00000
   D49        0.00000  -0.00000  -0.00000  -0.00000  -0.00000  -0.00000
   D50       -3.14159  -0.00000   0.00000  -0.00000  -0.00000  -3.14159
   D51        3.14159   0.00000   0.00000   0.00000   0.00000   3.14159
   D52       -0.00000   0.00000   0.00000   0.00000   0.00000   0.00000
         Item               Value     Threshold  Converged?
 Maximum Force            0.036654     0.000450     NO 
 RMS     Force            0.007918     0.000300     NO 
 Maximum Displacement     0.284556     0.001800     NO 
 RMS     Displacement     0.056835     0.001200     NO 
 Predicted change in Energy=-3.026208D-03
 GradGradGradGradGradGradGradGradGradGradGradGradGradGradGradGradGradGrad

                          Input orientation:                          
 ---------------------------------------------------------------------
 Center     Atomic      Atomic             Coordinates (Angstroms)
 Number     Number       Type             X           Y           Z
 ---------------------------------------------------------------------
      1          6           0        0.148483    2.432979    0.456453
      2          6           0        1.489031    2.499487    0.027302
      3          6           0        2.210941    3.686898    0.012470
      4          6           0        1.645869    4.884491    0.423544
      5          6           0        0.329277    4.838596    0.848673
      6          6           0       -0.403618    3.661454    0.869053
      7          6           0       -0.638321    1.108321    0.466889
      8          6           0       -0.071978   -0.133016    0.047160
      9          6           0       -0.743198   -1.349587    0.039811
     10          6           0       -2.051810   -1.416491    0.458384
     11          6           0       -2.679792   -0.267569    0.881065
     12          6           0       -1.997443    0.943781    0.883765
     13          1           0        2.012374    1.627192   -0.308932
     14          1           0        3.240256    3.671263   -0.329573
[...]

 **********************************************************************

 Orbital symmetries:
       Occupied  (A) (A) (A) (A) (A) (A) (A) (A) (A) (A) (A) (A)
                 (A) (A) (A) (A) (A) (A) (A) (A) (A) (A) (A) (A)
                 (A) (A) (A) (A) (A) (A) (A) (A) (A) (A) (A) (A)
                 (A) (A) (A) (A) (A) (A) (A) (A) (A) (A) (A) (A)
                 (A) (A) (A) (A) (A) (A) (A) (A) (A) (A) (A) (A)
                 (A) (A) (A) (A) (A) (A) (A) (A) (A) (A) (A) (A)
                 (A)
       Virtual   (A) (A) (A) (A) (A) (A) (A) (A) (A) (A) (A) (A)
                 (A) (A) (A) (A) (A) (A) (A) (A) (A) (A) (A) (A)
                 (A) (A) (A) (A) (A) (A) (A) (A) (A) (A) (A) (A)
                 (A) (A) (A) (A) (A) (A) (A) (A) (A) (A) (A) (A)
                 (A) (A) (A) (A) (A) (A) (A) (A) (A) (A) (A) (A)
                 (A) (A) (A) (A) (A) (A) (A) (A) (A) (A) (A) (A)
                 (A) (A) (A) (A) (A) (A) (A) (A) (A) (A) (A) (A)
                 (A) (A) (A) (A) (A) (A) (A) (A) (A) (A) (A) (A)
                 (A) (A) (A) (A) (A) (A) (A) (A) (A) (A) (A) (A)
                 (A) (A) (A) (A) (A) (A) (A) (A) (A) (A) (A) (A)
                 (A) (A) (A) (A) (A) (A) (A) (A) (A) (A) (A) (A)
                 (A) (A) (A) (A) (A) (A) (A) (A) (A) (A) (A) (A)
                 (A) (A) (A) (A) (A) (A) (A) (A) (A) (A) (A) (A)
                 (A) (A) (A) (A) (A) (A) (A) (A) (A) (A) (A) (A)
                 (A) (A) (A) (A) (A) (A) (A) (A) (A) (A) (A) (A)
                 (A) (A) (A) (A) (A) (A) (A) (A) (A) (A) (A) (A)
                 (A) (A) (A) (A) (A) (A) (A) (A) (A) (A) (A) (A)
                 (A) (A) (A) (A) (A) (A) (A) (A) (A) (A) (A) (A)
                 (A) (A) (A) (A) (A) (A) (A) (A) (A) (A) (A) (A)
                 (A) (A) (A) (A) (A) (A) (A) (A) (A) (A) (A) (A)
                 (A) (A) (A) (A) (A) (A) (A) (A) (A) (A) (A) (A)
                 (A) (A) (A) (A) (A) (A) (A) (A) (A) (A) (A) (A)
                 (A) (A) (A) (A) (A) (A) (A) (A) (A) (A) (A) (A)
                 (A) (A) (A) (A) (A) (A) (A) (A) (A) (A) (A) (A)
                 (A) (A) (A) (A) (A) (A) (A) (A) (A) (A) (A) (A)
                 (A) (A) (A) (A) (A) (A) (A) (A) (A) (A) (A) (A)
                 (A) (A) (A) (A) (A) (A) (A) (A) (A) (A) (A) (A)
                 (A) (A) (A) (A) (A) (A) (A) (A) (A) (A) (A) (A)
                 (A) (A) (A) (A) (A) (A) (A) (A)
 The electronic state is 1-A.
 Alpha  occ. eigenvalues -- -101.57493-101.57256-101.57256-101.56068 -10.27157
 Alpha  occ. eigenvalues --  -10.27156 -10.26964 -10.25106 -10.23074 -10.21670
 Alpha  occ. eigenvalues --  -10.21669 -10.21551 -10.20182 -10.20027 -10.19938
 Alpha  occ. eigenvalues --  -10.19699  -9.48946  -9.48724  -9.48723  -9.47525
 Alpha  occ. eigenvalues --   -7.25420  -7.25198  -7.25198  -7.24424  -7.24385
 Alpha  occ. eigenvalues --   -7.24208  -7.24208  -7.24149  -7.24148  -7.23985
 Alpha  occ. eigenvalues --   -7.23008  -7.22975  -0.94362  -0.90838  -0.89625
 Alpha  occ. eigenvalues --   -0.89562  -0.85472  -0.83262  -0.79939  -0.76482
 Alpha  occ. eigenvalues --   -0.75858  -0.74270  -0.65235  -0.63541  -0.62772
 Alpha  occ. eigenvalues --   -0.60804  -0.55185  -0.53196  -0.52588  -0.49616
 Alpha  occ. eigenvalues --   -0.49002  -0.47684  -0.46434  -0.45509  -0.44789
 Alpha  occ. eigenvalues --   -0.44051  -0.42196  -0.41836  -0.40447  -0.38633
 Alpha  occ. eigenvalues --   -0.38450  -0.38110  -0.37771  -0.34892  -0.34015
 Alpha  occ. eigenvalues --   -0.33951  -0.32806  -0.32612  -0.32410  -0.27890
 Alpha  occ. eigenvalues --   -0.27423  -0.27338  -0.26249
 Alpha virt. eigenvalues --   -0.05597  -0.05243  -0.04048  -0.03387  -0.03108
 Alpha virt. eigenvalues --   -0.00755   0.00334   0.01037   0.01370   0.01376
 Alpha virt. eigenvalues --    0.02038   0.02107   0.02750   0.03948   0.04287
 Alpha virt. eigenvalues --    0.05204   0.05256   0.05993   0.06176   0.06782
 Alpha virt. eigenvalues --    0.06999   0.08405   0.08537   0.08743   0.09037
 Alpha virt. eigenvalues --    0.09084   0.09273   0.10538   0.10922   0.11233
 Alpha virt. eigenvalues --    0.11534   0.11804   0.12051   0.12066   0.12515
 Alpha virt. eigenvalues --    0.12987   0.13312   0.13960   0.14408   0.14796
 Alpha virt. eigenvalues --    0.14859   0.15099   0.15372   0.15787   0.16926
 Alpha virt. eigenvalues --    0.17164   0.17419   0.17974   0.18569   0.18998
 Alpha virt. eigenvalues --    0.19290   0.19295   0.19669   0.20187   0.20284
 Alpha virt. eigenvalues --    0.20840   0.21530   0.21625   0.21944   0.22177
 Alpha virt. eigenvalues --    0.22799   0.23263   0.23281   0.23769   0.24246
 Alpha virt. eigenvalues --    0.24726   0.25029   0.25817   0.25971   0.26287
 Alpha virt. eigenvalues --    0.27103   0.27539   0.27546   0.28346   0.28493
 Alpha virt. eigenvalues --    0.29052   0.29501   0.30230   0.30591   0.30991
 Alpha virt. eigenvalues --    0.31096   0.32304   0.33034   0.33824   0.35026
 Alpha virt. eigenvalues --    0.37059   0.39532   0.41072   0.44140   0.44347
 Alpha virt. eigenvalues --    0.44810   0.44947   0.45023   0.45753   0.46970
 Alpha virt. eigenvalues --    0.47110   0.47319   0.48631   0.49302   0.50655
 Alpha virt. eigenvalues --    0.51503   0.52241   0.53143   0.53920   0.54518
 Alpha virt. eigenvalues --    0.55848   0.56188   0.56458   0.56879   0.57502
 Alpha virt. eigenvalues --    0.58737   0.59459   0.59705   0.60998   0.61403
 Alpha virt. eigenvalues --    0.61752   0.62513   0.64358   0.64579   0.65396
 Alpha virt. eigenvalues --    0.65434   0.66548   0.67073   0.67423   0.67635
 Alpha virt. eigenvalues --    0.68486   0.69560   0.69726   0.70331   0.71035
 Alpha virt. eigenvalues --    0.72481   0.74721   0.75871   0.78721   0.81104
 Alpha virt. eigenvalues --    0.81633   0.82362   0.83037   0.83229   0.83615
 Alpha virt. eigenvalues --    0.83936   0.83982   0.84449   0.84531   0.85435
 Alpha virt. eigenvalues --    0.85466   0.85755   0.85761   0.87113   0.87198
 Alpha virt. eigenvalues --    0.88032   0.89252   0.89425   0.90165   0.91425
 Alpha virt. eigenvalues --    0.92519   0.94382   0.95169   0.95351   0.95540
 Alpha virt. eigenvalues --    0.95650   0.96337   0.96815   0.97591   0.98228
 Alpha virt. eigenvalues --    0.99546   1.02161   1.02457   1.03304   1.03324
 Alpha virt. eigenvalues --    1.04334   1.05783   1.06941   1.10451   1.12098
 Alpha virt. eigenvalues --    1.12748   1.17523   1.18483   1.19778   1.21149
 Alpha virt. eigenvalues --    1.23605   1.23828   1.24960   1.26319   1.28276
 Alpha virt. eigenvalues --    1.30557   1.30801   1.31429   1.32230   1.33368
 Alpha virt. eigenvalues --    1.39583   1.41664   1.44009   1.48187   1.48902
 Alpha virt. eigenvalues --    1.50394   1.54314   1.54330   1.55024   1.56340
 Alpha virt. eigenvalues --    1.56732   1.57424   1.58258   1.59672   1.61130
 Alpha virt. eigenvalues --    1.64553   1.65103   1.66822   1.67630   1.70173
 Alpha virt. eigenvalues --    1.74385   1.75265   1.76852   1.79076   1.82278
 Alpha virt. eigenvalues --    1.82961   1.83218   1.85187   1.87493   1.89662
 Alpha virt. eigenvalues --    1.92068   1.93383   1.93569   1.93746   1.94250
 Alpha virt. eigenvalues --    1.94964   1.98887   1.99924   2.00150   2.01940
 Alpha virt. eigenvalues --    2.04174   2.04588   2.05293   2.06285   2.11998
 Alpha virt. eigenvalues --    2.12949   2.17549   2.18706   2.23277   2.26259
 Alpha virt. eigenvalues --    2.26291   2.26860   2.28014   2.28091   2.30414
 Alpha virt. eigenvalues --    2.33613   2.36499   2.38228   2.38423   2.39708
 Alpha virt. eigenvalues --    2.41056   2.42159   2.46584   2.49190   2.51454
 Alpha virt. eigenvalues --    2.52098   2.52953   2.54831   2.54953   2.58165
 Alpha virt. eigenvalues --    2.58905   2.63997   2.64534   2.67919   2.69431
 Alpha virt. eigenvalues --    2.69729   2.69866   2.71243   2.73146   2.73592
 Alpha virt. eigenvalues --    2.74552   2.75377   2.75568   2.75987   2.78566
 Alpha virt. eigenvalues --    2.79955   2.83333   2.83574   2.84880   2.85431
 Alpha virt. eigenvalues --    2.88506   2.90604   2.96736   3.00297   3.09327
 Alpha virt. eigenvalues --    3.09778   3.09818   3.12756   3.15133   3.17945
 Alpha virt. eigenvalues --    3.20953   3.21556   3.27770   3.32539   3.34132
 Alpha virt. eigenvalues --    3.36837   3.46243   3.51074   3.59144   3.59965
 Alpha virt. eigenvalues --    3.69909   3.71892   3.76736   3.80884   3.97075
 Alpha virt. eigenvalues --    4.00394   4.07392   4.10808   4.13473   4.35505
 Alpha virt. eigenvalues --    4.80068   4.82979   9.76071   9.78535   9.79723
 Alpha virt. eigenvalues --    9.82835  23.41066  23.60517  23.84400  23.85402
 Alpha virt. eigenvalues --   23.90036  23.92218  24.00308  24.03416  24.05244
 Alpha virt. eigenvalues --   24.08539  24.11049  24.17126  25.81581  25.83061
 Alpha virt. eigenvalues --   25.84845  25.91420  26.09622  26.12607  26.23934
 Alpha virt. eigenvalues --   26.31822  26.57905  26.61269  26.62847  26.79820
 Alpha virt. eigenvalues --  215.75118 215.77787 215.79309 215.83207
          Condensed to atoms (all electrons):
               1          2          3          4          5          6
     1  C   18.601433  -0.255839  -1.946875  -1.554251  -3.982118   2.574100
     2  C   -0.255839  17.411817   0.028971   0.891950  -1.928719  -5.702564
     3  C   -1.946875   0.028971  10.472839  -0.144823   0.135721  -3.492111
     4  C   -1.554251   0.891950  -0.144823  17.370123  -1.258546  -8.518756
     5  C   -3.982118  -1.928719   0.135721  -1.258546  20.780982  -8.870226
     6  C    2.574100  -5.702564  -3.492111  -8.518756  -8.870226  36.932962
     7  C    2.600443  -0.148740   0.888450  -0.449928   3.806687  -7.916856
     8  C   -2.005936  -1.355025  -0.098230   0.111583  -1.022525   0.819189
     9  C   -3.067566  -0.744515   0.056950   0.007506  -0.194884  -0.139022
    10  C   -0.046281  -0.201074  -0.027358   0.030187  -0.086144   0.068891
    11  C   -3.065191  -0.742641   0.056705   0.007783  -0.194849  -0.140378
    12  C   -2.006392  -1.355021  -0.097710   0.111329  -1.022094   0.818154
    13  H    0.017191   0.276714  -0.059322  -0.010318  -0.009484   0.006497
    14  H    0.027864   0.019241   0.344289   0.003886  -0.015688  -0.039342
    15  H    0.044922  -0.054047  -0.014769   0.289348   0.052811   0.026023
    16  H    0.049494   0.016164  -0.008655   0.045853   0.036961   0.062621
    17  H    0.028109   0.000974  -0.000198   0.000006  -0.000122  -0.000227
    18  H    0.028104   0.000971  -0.000198   0.000006  -0.000123  -0.000222
    19  Cl  -0.105782   0.244192   0.145781  -0.108291   0.331472  -0.227143
    20  Cl  -0.302118   0.184406   0.125913  -0.202532  -1.377985   0.996166
    21  Cl  -0.037190  -0.013491   0.002803  -0.001301   0.005264  -0.020595
    22  Cl  -0.105611   0.244685   0.145554  -0.108214   0.332382  -0.228620
               7          8          9         10         11         12
     1  C    2.600443  -2.005936  -3.067566  -0.046281  -3.065191  -2.006392
     2  C   -0.148740  -1.355025  -0.744515  -0.201074  -0.742641  -1.355021
     3  C    0.888450  -0.098230   0.056950  -0.027358   0.056705  -0.097710
     4  C   -0.449928   0.111583   0.007506   0.030187   0.007783   0.111329
     5  C    3.806687  -1.022525  -0.194884  -0.086144  -0.194849  -1.022094
     6  C   -7.916856   0.819189  -0.139022   0.068891  -0.140378   0.818154
     7  C   18.503819  -1.012604  -4.378557  -0.776897  -4.376094  -1.013260
     8  C   -1.012604  17.111082  -5.502802  -2.386092   6.419571  -4.098178
     9  C   -4.378557  -5.502802  26.940183  -1.600446 -11.587857   6.420579
    10  C   -0.776897  -2.386092  -1.600446  15.820465  -1.599870  -2.386845
    11  C   -4.376094   6.419571 -11.587857  -1.599870  26.933992  -5.500663
    12  C   -1.013260  -4.098178   6.420579  -2.386845  -5.500663  17.109004
    13  H    0.017576   0.043863   0.012729   0.003020   0.012696   0.043907
    14  H    0.004796   0.001344   0.000013   0.000100   0.000014   0.001346
    15  H    0.008939   0.000866   0.000038   0.000045   0.000038   0.000866
    16  H    0.102309   0.024909   0.006705   0.004112   0.006730   0.024881
    17  H    0.097475   0.072194   0.089952   0.043574   0.054529  -0.030158
    18  H    0.097457  -0.030143   0.054520   0.043595   0.090051   0.072083
    19  Cl  -0.241123  -0.693067   0.619180  -0.274527  -0.756387   0.154621
    20  Cl  -0.119836  -0.034642  -0.005477   0.004493  -0.005490  -0.034630
    21  Cl   0.061206  -0.100347   0.263858  -1.062776   0.263664  -0.100145
    22  Cl  -0.240080   0.154066  -0.756533  -0.274623   0.618822  -0.693117
              13         14         15         16         17         18
     1  C    0.017191   0.027864   0.044922   0.049494   0.028109   0.028104
     2  C    0.276714   0.019241  -0.054047   0.016164   0.000974   0.000971
     3  C   -0.059322   0.344289  -0.014769  -0.008655  -0.000198  -0.000198
     4  C   -0.010318   0.003886   0.289348   0.045853   0.000006   0.000006
     5  C   -0.009484  -0.015688   0.052811   0.036961  -0.000122  -0.000123
     6  C    0.006497  -0.039342   0.026023   0.062621  -0.000227  -0.000222
     7  C    0.017576   0.004796   0.008939   0.102309   0.097475   0.097457
     8  C    0.043863   0.001344   0.000866   0.024909   0.072194  -0.030143
     9  C    0.012729   0.000013   0.000038   0.006705   0.089952   0.054520
    10  C    0.003020   0.000100   0.000045   0.004112   0.043574   0.043595
    11  C    0.012696   0.000014   0.000038   0.006730   0.054529   0.090051
    12  C    0.043907   0.001346   0.000866   0.024881  -0.030158   0.072083
    13  H    0.536576  -0.007155  -0.000172  -0.000024  -0.000000  -0.000000
    14  H   -0.007155   0.531163  -0.007856   0.000063   0.000000   0.000000
    15  H   -0.000172  -0.007856   0.512161  -0.000246  -0.000000  -0.000000
    16  H   -0.000024   0.000063  -0.000246   0.516445   0.000002   0.000002
    17  H   -0.000000   0.000000  -0.000000   0.000002   0.493225  -0.000227
    18  H   -0.000000   0.000000  -0.000000   0.000002  -0.000227   0.493224
    19  Cl  -0.004951  -0.000757  -0.000157  -0.004628   0.000250  -0.006613
    20  Cl  -0.000312   0.000606  -0.008292  -0.017307  -0.000010  -0.000010
    21  Cl   0.000065  -0.000001   0.000000   0.000042  -0.013113  -0.013113
    22  Cl  -0.004962  -0.000757  -0.000158  -0.004624  -0.006614   0.000251
              19         20         21         22
     1  C   -0.105782  -0.302118  -0.037190  -0.105611
     2  C    0.244192   0.184406  -0.013491   0.244685
     3  C    0.145781   0.125913   0.002803   0.145554
     4  C   -0.108291  -0.202532  -0.001301  -0.108214
     5  C    0.331472  -1.377985   0.005264   0.332382
     6  C   -0.227143   0.996166  -0.020595  -0.228620
     7  C   -0.241123  -0.119836   0.061206  -0.240080
     8  C   -0.693067  -0.034642  -0.100347   0.154066
     9  C    0.619180  -0.005477   0.263858  -0.756533
    10  C   -0.274527   0.004493  -1.062776  -0.274623
    11  C   -0.756387  -0.005490   0.263664   0.618822
    12  C    0.154621  -0.034630  -0.100145  -0.693117
    13  H   -0.004951  -0.000312   0.000065  -0.004962
    14  H   -0.000757   0.000606  -0.000001  -0.000757
    15  H   -0.000157  -0.008292   0.000000  -0.000158
    16  H   -0.004628  -0.017307   0.000042  -0.004624
    17  H    0.000250  -0.000010  -0.013113  -0.006614
    18  H   -0.006613  -0.000010  -0.013113   0.000251
    19  Cl  17.605353  -0.000423  -0.027010  -0.040588
    20  Cl  -0.000423  17.389952   0.000083  -0.000432
    21  Cl  -0.027010   0.000083  17.398846  -0.027011
    22  Cl  -0.040588  -0.000432  -0.027011  17.605566
 Mulliken charges:
               1
     1  C    0.509492
     2  C   -0.818408
     3  C   -0.513728
     4  C   -0.512597
     5  C    0.481225
     6  C   -1.008541
     7  C    0.484818
     8  C   -0.419074
     9  C   -0.494556
    10  C    0.704450
    11  C   -0.495174
    12  C   -0.418554
    13  H    0.125868
    14  H    0.136832
    15  H    0.149640
    16  H    0.138191
    17  H    0.170379
    18  H    0.170384
    19  Cl   0.390595
    20  Cl   0.407877
    21  Cl   0.420262
    22  Cl   0.390617
 Sum of Mulliken charges =  -0.00000
 Mulliken charges with hydrogens summed into heavy atoms:
               1
     1  C    0.509492
     2  C   -0.692540
     3  C   -0.376896
     4  C   -0.362957
     5  C    0.481225
     6  C   -0.870350
     7  C    0.484818
     8  C   -0.419074
     9  C   -0.324177
    10  C    0.704450
    11  C   -0.324790
    12  C   -0.418554
    19  Cl   0.390595
    20  Cl   0.407877
    21  Cl   0.420262
    22  Cl   0.390617
 Electronic spatial extent (au):  <R**2>=           6109.7446
 Charge=              0.0000 electrons
 Dipole moment (field-independent basis, Debye):
    X=              0.4835    Y=             -0.0007    Z=              1.4756  Tot=              1.5527
 Quadrupole moment (field-independent basis, Debye-Ang):
   XX=           -121.2311   YY=           -122.3134   ZZ=           -116.8185
   XY=              0.0033   XZ=             -6.3989   YZ=             -0.0038
 Traceless Quadrupole moment (field-independent basis, Debye-Ang):
   XX=             -1.1101   YY=             -2.1924   ZZ=              3.3025
   XY=              0.0033   XZ=             -6.3989   YZ=             -0.0038
 Octapole moment (field-independent basis, Debye-Ang**2):
  XXX=             -8.5038  YYY=              0.0144  ZZZ=              5.0491  XYY=             16.1983
  XXY=             -0.0170  XXZ=             24.7155  XZZ=            -11.2645  YZZ=             -0.0102
  YYZ=             -6.5253  XYZ=              0.0132
 Hexadecapole moment (field-independent basis, Debye-Ang**3):
 XXXX=          -5876.9864 YYYY=          -1463.5703 ZZZZ=           -710.6386 XXXY=              0.0278
 XXXZ=            -98.2011 YYYX=             -0.0161 YYYZ=              0.0396 ZZZX=             -2.5161
 ZZZY=             -0.0449 XXYY=          -1218.1331 XXZZ=          -1087.8010 YYZZ=           -393.4792
 XXYZ=             -0.0189 YYXZ=              6.3115 ZZXY=              0.0132
 N-N= 1.440201293995D+03 E-N=-8.324781973496D+03  KE= 2.295551666877D+03
 1\1\GINC-LOCALHOST\FOpt\RB3LYP\6-311+G(d,p)\C12H6Cl4\GOUR\16-Mar-2022\
 0\\# opt b3lyp/6-311+g(d,p) scf=xqc\\Title Card Required\\0,1\C,0.1497
 935884,2.37717058,0.4788034719\C,1.4312891802,2.4402115919,1.031545593
 5\C,2.1299438185,3.6444793941,1.0396147201\C,1.5634667662,4.7966334734
 ,0.4994767966\C,0.2870970482,4.7213046541,-0.0478970517\C,-0.426255589
 4,3.5280275531,-0.0652301024\C,-0.6069257354,1.0899249582,0.4657800039
 \C,-0.5122071724,0.1840232578,-0.6014675004\C,-1.2077659475,-1.0207853
 627,-0.6314522092\C,-2.0297321477,-1.3364601863,0.4423664145\C,-2.1648
 686159,-0.4803662589,1.5273425901\C,-1.4529505554,0.7152231692,1.52049
 26075\H,1.8791072645,1.5484754297,1.4537489635\H,3.1239380383,3.689790
 9127,1.4692438943\H,2.1000389173,5.7366256224,0.5018943541\H,-1.418273
 3757,3.4955080485,-0.497160322\H,-1.1078600752,-1.6918635142,-1.472619
 8435\H,-2.8067584817,-0.7325837242,2.3593602856\Cl,-1.6432177467,1.777
 291817,2.9033201189\Cl,-0.4445373435,6.165697992,-0.7345372948\Cl,-2.9
 160180703,-2.8483493854,0.4279016429\Cl,0.5179551652,0.5571345574,-1.9
 711216734\\Version=EM64L-G16RevB.01\State=1-A\HF=-2301.9022817\RMSD=3.
 377e-09\RMSF=6.321e-06\Dipole=0.4179558,-0.3516962,0.2735245\Quadrupol
 e=4.3253487,-3.2304879,-1.0948608,2.4142603,2.037177,1.4718052\PG=C01 
 [X(C12H6Cl4)]\\@


 THE 2ND LAW OF THERMODYNAMICS HAS THE SAME
 DEGREE OF TRUTH AS THE STATEMENT THAT IF YOU THROW
 A TUMBLERFULL OF WATER INTO THE SEA, YOU CANNOT GET
 THE SAME TUMBLERFULL OF WATER OUT AGAIN.
          - J.C. MAXWELL, LETTER TO LORD RAYLEIGH, DECEMBER 6,1870
 Job cpu time:       0 days 12 hours 36 minutes 38.0 seconds.
 Elapsed time:       0 days  3 hours  9 minutes 42.9 seconds.
 File lengths (MBytes):  RWF=    110 Int=      0 D2E=      0 Chk=     17 Scr=      1
 Normal termination of Gaussian 16 at Wed Mar 16 02:45:46 2022.
