 Entering Gaussian System, Link 0=g16
 Input=2,3prime,5prime-Trichlorobiphenyl.gjf
 Output=2,3prime,5prime-Trichlorobiphenyl.log
 Initial command:
 /usr/local/g16/l1.exe "/scratch/pkc/Gau-21234.inp" -scrdir="/scratch/pkc/"
 Entering Link 1 = /usr/local/g16/l1.exe PID=     21235.
  
 Copyright (c) 1988-2017, Gaussian, Inc.  All Rights Reserved.
  
 This is part of the Gaussian(R) 16 program.  It is based on
 the Gaussian(R) 09 system (copyright 2009, Gaussian, Inc.),
 the Gaussian(R) 03 system (copyright 2003, Gaussian, Inc.),
 the Gaussian(R) 98 system (copyright 1998, Gaussian, Inc.),
 the Gaussian(R) 94 system (copyright 1995, Gaussian, Inc.),
 the Gaussian 92(TM) system (copyright 1992, Gaussian, Inc.),
 the Gaussian 90(TM) system (copyright 1990, Gaussian, Inc.),
 the Gaussian 88(TM) system (copyright 1988, Gaussian, Inc.),
 the Gaussian 86(TM) system (copyright 1986, Carnegie Mellon
 University), and the Gaussian 82(TM) system (copyright 1983,
 Carnegie Mellon University). Gaussian is a federally registered
 trademark of Gaussian, Inc.
  
 This software contains proprietary and confidential information,
 including trade secrets, belonging to Gaussian, Inc.
  
 This software is provided under written license and may be
 used, copied, transmitted, or stored only in accord with that
 written license.
  
 The following legend is applicable only to US Government
 contracts under FAR:
  
                    RESTRICTED RIGHTS LEGEND
  
 Use, reproduction and disclosure by the US Government is
 subject to restrictions as set forth in subparagraphs (a)
 and (c) of the Commercial Computer Software - Restricted
 Rights clause in FAR 52.227-19.
  
 Gaussian, Inc.
 340 Quinnipiac St., Bldg. 40, Wallingford CT 06492
  
  
 ---------------------------------------------------------------
 Warning -- This program may not be used in any manner that
 competes with the business of Gaussian, Inc. or will provide
 assistance to any competitor of Gaussian, Inc.  The licensee
 of this program is prohibited from giving any competitor of
 Gaussian, Inc. access to this program.  By using this program,
 the user acknowledges that Gaussian, Inc. is engaged in the
 business of creating and licensing software in the field of
 computational chemistry and represents and warrants to the
 licensee that it is not a competitor of Gaussian, Inc. and that
 it will not use this program in any manner prohibited above.
 ---------------------------------------------------------------
  

 Cite this work as:
 Gaussian 16, Revision B.01,
 M. J. Frisch, G. W. Trucks, H. B. Schlegel, G. E. Scuseria, 
 M. A. Robb, J. R. Cheeseman, G. Scalmani, V. Barone, 
 G. A. Petersson, H. Nakatsuji, X. Li, M. Caricato, A. V. Marenich, 
 J. Bloino, B. G. Janesko, R. Gomperts, B. Mennucci, H. P. Hratchian, 
 J. V. Ortiz, A. F. Izmaylov, J. L. Sonnenberg, D. Williams-Young, 
 F. Ding, F. Lipparini, F. Egidi, J. Goings, B. Peng, A. Petrone, 
 T. Henderson, D. Ranasinghe, V. G. Zakrzewski, J. Gao, N. Rega, 
 G. Zheng, W. Liang, M. Hada, M. Ehara, K. Toyota, R. Fukuda, 
 J. Hasegawa, M. Ishida, T. Nakajima, Y. Honda, O. Kitao, H. Nakai, 
 T. Vreven, K. Throssell, J. A. Montgomery, Jr., J. E. Peralta, 
 F. Ogliaro, M. J. Bearpark, J. J. Heyd, E. N. Brothers, K. N. Kudin, 
 V. N. Staroverov, T. A. Keith, R. Kobayashi, J. Normand, 
 K. Raghavachari, A. P. Rendell, J. C. Burant, S. S. Iyengar, 
 J. Tomasi, M. Cossi, J. M. Millam, M. Klene, C. Adamo, R. Cammi, 
 J. W. Ochterski, R. L. Martin, K. Morokuma, O. Farkas, 
 J. B. Foresman, and D. J. Fox, Gaussian, Inc., Wallingford CT, 2016.
 
 ******************************************
 Gaussian 16:  EM64L-G16RevB.01 20-Dec-2017
                15-Mar-2022 
 ******************************************
 %mem=10GB
 %nprocshared=4
 Will use up to    4 processors via shared memory.
 --------------------------------
 # opt b3lyp/6-311+g(d,p) scf=xqc
 --------------------------------
 1/18=20,19=15,26=3,38=1/1,3;
 2/9=110,12=2,17=6,18=5,40=1/2;
 3/5=4,6=6,7=111,11=2,25=1,30=1,71=1,74=-5/1,2,3;
 4//1;
 5/5=2,8=3,13=1,38=5/2,8;
 6/7=2,8=2,9=2,10=2,28=1/1;
 7//1,2,3,16;
 1/18=20,19=15,26=3/3(2);
 2/9=110/2;
 99//99;
 2/9=110/2;
 3/5=4,6=6,7=111,11=2,25=1,30=1,71=1,74=-5/1,2,3;
 4/5=5,16=3,69=1/1;
 5/5=2,8=3,13=1,38=5/2,8;
 7//1,2,3,16;
 1/18=20,19=15,26=3/3(-5);
 2/9=110/2;
 6/7=2,8=2,9=2,10=2,19=2,28=1/1;
 99/9=1/99;
 -------------------
 Title Card Required
 -------------------
 Symbolic Z-matrix:
 Charge =  0 Multiplicity = 1
 C                    -0.27709  -0.04767  -0.00285 
 C                     1.05529  -0.01779  -0.4362 
 C                     1.76318   1.19166  -0.44227 
 C                     1.1387    2.37123  -0.015 
 C                    -0.19369   2.34134   0.41835 
 C                    -0.90158   1.13189   0.42442 
 C                    -1.055    -1.37674   0.00382 
 C                    -0.43051  -2.5563   -0.42345 
 C                    -1.1384   -3.76576  -0.41738 
 C                    -2.47078  -3.79564   0.01597 
 C                    -3.09527  -2.61608   0.44325 
 C                    -2.38738  -1.40663   0.43717 
 H                     1.5321   -0.91841  -0.76243 
 H                     1.67919   3.29467  -0.01963 
 H                    -1.91888   1.10907   0.75529 
 H                     0.58679  -2.53349  -0.75432 
 H                    -0.66159  -4.66638  -0.74361 
 H                    -3.01127  -4.71909   0.02061 
 H                    -4.11257  -2.6389    0.77412 
 Cl                   -3.17166   0.07477   0.97378 
 Cl                   -0.97797   3.82275   0.95495 
 Cl                    3.4365    1.2292   -0.9865 
 

 GradGradGradGradGradGradGradGradGradGradGradGradGradGradGradGradGradGrad
 Berny optimization.
 Initialization pass.
                           ----------------------------
                           !    Initial Parameters    !
                           ! (Angstroms and Degrees)  !
 --------------------------                            --------------------------
 ! Name  Definition              Value          Derivative Info.                !
 --------------------------------------------------------------------------------
 ! R1    R(1,2)                  1.4014         estimate D2E/DX2                !
 ! R2    R(1,6)                  1.4014         estimate D2E/DX2                !
 ! R3    R(1,7)                  1.54           estimate D2E/DX2                !
 ! R4    R(2,3)                  1.4014         estimate D2E/DX2                !
 ! R5    R(2,13)                 1.07           estimate D2E/DX2                !
 ! R6    R(3,4)                  1.4014         estimate D2E/DX2                !
 ! R7    R(3,22)                 1.76           estimate D2E/DX2                !
 ! R8    R(4,5)                  1.4014         estimate D2E/DX2                !
 ! R9    R(4,14)                 1.07           estimate D2E/DX2                !
 ! R10   R(5,6)                  1.4014         estimate D2E/DX2                !
 ! R11   R(5,21)                 1.76           estimate D2E/DX2                !
 ! R12   R(6,15)                 1.07           estimate D2E/DX2                !
 ! R13   R(7,8)                  1.4014         estimate D2E/DX2                !
 ! R14   R(7,12)                 1.4014         estimate D2E/DX2                !
 ! R15   R(8,9)                  1.4014         estimate D2E/DX2                !
 ! R16   R(8,16)                 1.07           estimate D2E/DX2                !
 ! R17   R(9,10)                 1.4014         estimate D2E/DX2                !
 ! R18   R(9,17)                 1.07           estimate D2E/DX2                !
 ! R19   R(10,11)                1.4014         estimate D2E/DX2                !
 ! R20   R(10,18)                1.07           estimate D2E/DX2                !
 ! R21   R(11,12)                1.4014         estimate D2E/DX2                !
 ! R22   R(11,19)                1.07           estimate D2E/DX2                !
 ! R23   R(12,20)                1.76           estimate D2E/DX2                !
 ! A1    A(2,1,6)              120.0            estimate D2E/DX2                !
 ! A2    A(2,1,7)              120.0            estimate D2E/DX2                !
 ! A3    A(6,1,7)              120.0            estimate D2E/DX2                !
 ! A4    A(1,2,3)              120.0            estimate D2E/DX2                !
 ! A5    A(1,2,13)             120.0            estimate D2E/DX2                !
 ! A6    A(3,2,13)             120.0            estimate D2E/DX2                !
 ! A7    A(2,3,4)              120.0            estimate D2E/DX2                !
 ! A8    A(2,3,22)             120.0            estimate D2E/DX2                !
 ! A9    A(4,3,22)             120.0            estimate D2E/DX2                !
 ! A10   A(3,4,5)              120.0            estimate D2E/DX2                !
 ! A11   A(3,4,14)             120.0            estimate D2E/DX2                !
 ! A12   A(5,4,14)             120.0            estimate D2E/DX2                !
 ! A13   A(4,5,6)              120.0            estimate D2E/DX2                !
 ! A14   A(4,5,21)             120.0            estimate D2E/DX2                !
 ! A15   A(6,5,21)             120.0            estimate D2E/DX2                !
 ! A16   A(1,6,5)              120.0            estimate D2E/DX2                !
 ! A17   A(1,6,15)             120.0            estimate D2E/DX2                !
 ! A18   A(5,6,15)             120.0            estimate D2E/DX2                !
 ! A19   A(1,7,8)              120.0            estimate D2E/DX2                !
 ! A20   A(1,7,12)             120.0            estimate D2E/DX2                !
 ! A21   A(8,7,12)             120.0            estimate D2E/DX2                !
 ! A22   A(7,8,9)              120.0            estimate D2E/DX2                !
 ! A23   A(7,8,16)             120.0            estimate D2E/DX2                !
 ! A24   A(9,8,16)             120.0            estimate D2E/DX2                !
 ! A25   A(8,9,10)             120.0            estimate D2E/DX2                !
 ! A26   A(8,9,17)             120.0            estimate D2E/DX2                !
 ! A27   A(10,9,17)            120.0            estimate D2E/DX2                !
 ! A28   A(9,10,11)            120.0            estimate D2E/DX2                !
 ! A29   A(9,10,18)            120.0            estimate D2E/DX2                !
 ! A30   A(11,10,18)           120.0            estimate D2E/DX2                !
 ! A31   A(10,11,12)           120.0            estimate D2E/DX2                !
 ! A32   A(10,11,19)           120.0            estimate D2E/DX2                !
 ! A33   A(12,11,19)           120.0            estimate D2E/DX2                !
 ! A34   A(7,12,11)            120.0            estimate D2E/DX2                !
 ! A35   A(7,12,20)            120.0            estimate D2E/DX2                !
 ! A36   A(11,12,20)           120.0            estimate D2E/DX2                !
 ! D1    D(6,1,2,3)              0.0001         estimate D2E/DX2                !
 ! D2    D(6,1,2,13)           180.0            estimate D2E/DX2                !
 ! D3    D(7,1,2,3)           -180.0            estimate D2E/DX2                !
 ! D4    D(7,1,2,13)            -0.0001         estimate D2E/DX2                !
 ! D5    D(2,1,6,5)             -0.0001         estimate D2E/DX2                !
 ! D6    D(2,1,6,15)           180.0            estimate D2E/DX2                !
 ! D7    D(7,1,6,5)            180.0            estimate D2E/DX2                !
 ! D8    D(7,1,6,15)             0.0            estimate D2E/DX2                !
 ! D9    D(2,1,7,8)             -0.0001         estimate D2E/DX2                !
 ! D10   D(2,1,7,12)           179.9998         estimate D2E/DX2                !
 ! D11   D(6,1,7,8)            179.9999         estimate D2E/DX2                !
 ! D12   D(6,1,7,12)            -0.0002         estimate D2E/DX2                !
 ! D13   D(1,2,3,4)              0.0            estimate D2E/DX2                !
 ! D14   D(1,2,3,22)           180.0            estimate D2E/DX2                !
 ! D15   D(13,2,3,4)          -179.9999         estimate D2E/DX2                !
 ! D16   D(13,2,3,22)            0.0001         estimate D2E/DX2                !
 ! D17   D(2,3,4,5)             -0.0001         estimate D2E/DX2                !
 ! D18   D(2,3,4,14)           180.0            estimate D2E/DX2                !
 ! D19   D(22,3,4,5)           179.9999         estimate D2E/DX2                !
 ! D20   D(22,3,4,14)            0.0            estimate D2E/DX2                !
 ! D21   D(3,4,5,6)              0.0001         estimate D2E/DX2                !
 ! D22   D(3,4,5,21)          -179.9999         estimate D2E/DX2                !
 ! D23   D(14,4,5,6)          -180.0            estimate D2E/DX2                !
 ! D24   D(14,4,5,21)            0.0            estimate D2E/DX2                !
 ! D25   D(4,5,6,1)              0.0            estimate D2E/DX2                !
 ! D26   D(4,5,6,15)           179.9999         estimate D2E/DX2                !
 ! D27   D(21,5,6,1)           180.0            estimate D2E/DX2                !
 ! D28   D(21,5,6,15)           -0.0001         estimate D2E/DX2                !
 ! D29   D(1,7,8,9)            179.9999         estimate D2E/DX2                !
 ! D30   D(1,7,8,16)             0.0001         estimate D2E/DX2                !
 ! D31   D(12,7,8,9)             0.0001         estimate D2E/DX2                !
 ! D32   D(12,7,8,16)         -179.9998         estimate D2E/DX2                !
 ! D33   D(1,7,12,11)         -179.9999         estimate D2E/DX2                !
 ! D34   D(1,7,12,20)            0.0            estimate D2E/DX2                !
 ! D35   D(8,7,12,11)           -0.0001         estimate D2E/DX2                !
 ! D36   D(8,7,12,20)          179.9999         estimate D2E/DX2                !
 ! D37   D(7,8,9,10)             0.0            estimate D2E/DX2                !
 ! D38   D(7,8,9,17)           180.0            estimate D2E/DX2                !
 ! D39   D(16,8,9,10)          179.9998         estimate D2E/DX2                !
 ! D40   D(16,8,9,17)           -0.0002         estimate D2E/DX2                !
 ! D41   D(8,9,10,11)            0.0            estimate D2E/DX2                !
 ! D42   D(8,9,10,18)         -179.9999         estimate D2E/DX2                !
 ! D43   D(17,9,10,11)         180.0            estimate D2E/DX2                !
 ! D44   D(17,9,10,18)           0.0001         estimate D2E/DX2                !
 ! D45   D(9,10,11,12)           0.0            estimate D2E/DX2                !
 ! D46   D(9,10,11,19)        -179.9998         estimate D2E/DX2                !
 ! D47   D(18,10,11,12)        179.9999         estimate D2E/DX2                !
 ! D48   D(18,10,11,19)          0.0001         estimate D2E/DX2                !
 ! D49   D(10,11,12,7)           0.0            estimate D2E/DX2                !
 ! D50   D(10,11,12,20)       -179.9999         estimate D2E/DX2                !
 ! D51   D(19,11,12,7)         179.9999         estimate D2E/DX2                !
 ! D52   D(19,11,12,20)         -0.0001         estimate D2E/DX2                !
 --------------------------------------------------------------------------------
 Trust Radius=3.00D-01 FncErr=1.00D-07 GrdErr=1.00D-06 EigMax=2.50D+02 EigMin=1.00D-04
 Number of steps in this run=    121 maximum allowed number of steps=    132.
 GradGradGradGradGradGradGradGradGradGradGradGradGradGradGradGradGradGrad

                          Input orientation:                          
 ---------------------------------------------------------------------
 Center     Atomic      Atomic             Coordinates (Angstroms)
 Number     Number       Type             X           Y           Z
 ---------------------------------------------------------------------
      1          6           0       -0.277092   -0.047672   -0.002851
      2          6           0        1.055289   -0.017786   -0.436198
      3          6           0        1.763183    1.191665   -0.442270
      4          6           0        1.138695    2.371230   -0.014995
      5          6           0       -0.193687    2.341344    0.418349
      6          6           0       -0.901580    1.131893    0.424422
      7          6           0       -1.054997   -1.376740    0.003823
      8          6           0       -0.430510   -2.556305   -0.423452
      9          6           0       -1.138403   -3.765756   -0.417378
     10          6           0       -2.470783   -3.795642    0.015972
     11          6           0       -3.095270   -2.616077    0.443247
     12          6           0       -2.387377   -1.406626    0.437173
     13          1           0        1.532100   -0.918411   -0.762430
     14          1           0        1.679188    3.294672   -0.019631
     15          1           0       -1.918883    1.109075    0.755291
     16          1           0        0.586793   -2.533486   -0.754322
     17          1           0       -0.661593   -4.666380   -0.743612
     18          1           0       -3.011274   -4.719086    0.020612
     19          1           0       -4.112571   -2.638897    0.774122
     20         17           0       -3.171662    0.074774    0.973785
     21         17           0       -0.977973    3.822745    0.954955
     22         17           0        3.436503    1.229198   -0.986504
 ---------------------------------------------------------------------
                    Distance matrix (angstroms):
                    1          2          3          4          5
     1  C    0.000000
     2  C    1.401400   0.000000
     3  C    2.427296   1.401400   0.000000
     4  C    2.802800   2.427296   1.401400   0.000000
     5  C    2.427296   2.802800   2.427296   1.401400   0.000000
     6  C    1.401400   2.427296   2.802800   2.427296   1.401400
     7  C    1.540000   2.548270   3.838989   4.342800   3.838989
     8  C    2.548270   2.941400   4.342800   5.187469   4.975106
     9  C    3.838989   4.342800   5.744200   6.558176   6.235992
    10  C    4.342800   5.187469   6.558176   7.145600   6.558176
    11  C    3.838989   4.975106   6.235992   6.558176   5.744200
    12  C    2.548270   3.813607   4.975106   5.187469   4.342800
    13  H    2.146700   1.070000   2.146700   3.396345   3.872800
    14  H    3.872800   3.396345   2.146700   1.070000   2.146700
    15  H    2.146700   3.396345   3.872800   3.396345   2.146700
    16  H    2.736837   2.578650   3.918930   4.990735   5.074276
    17  H    4.693509   4.965039   6.347206   7.300676   7.118798
    18  H    5.412800   6.232802   7.612271   8.215600   7.612271
    19  H    4.693509   5.919617   7.118798   7.300676   6.347206
    20  Cl   3.057342   4.456874   5.254079   4.983028   3.783409
    21  Cl   4.048303   4.562800   4.048303   2.743718   1.760000
    22  Cl   4.048303   2.743718   1.760000   2.743718   4.048303
                    6          7          8          9         10
     6  C    0.000000
     7  C    2.548270   0.000000
     8  C    3.813607   1.401400   0.000000
     9  C    4.975106   2.427296   1.401400   0.000000
    10  C    5.187469   2.802800   2.427296   1.401400   0.000000
    11  C    4.342800   2.427296   2.802800   2.427296   1.401400
    12  C    2.941400   1.401400   2.427296   2.802800   2.427296
    13  H    3.396345   2.736837   2.578650   3.918930   4.990735
    14  H    3.396345   5.412800   6.232802   7.612271   8.215600
    15  H    1.070000   2.736837   4.127917   5.074276   4.990735
    16  H    4.127917   2.146700   1.070000   2.146700   3.396345
    17  H    5.919617   3.396345   2.146700   1.070000   2.146700
    18  H    6.232802   3.872800   3.396345   2.146700   1.070000
    19  H    4.965039   3.396345   3.872800   3.396345   2.146700
    20  Cl   2.563702   2.743718   4.048303   4.562800   4.048303
    21  Cl   2.743718   5.286324   6.549198   7.713260   7.819846
    22  Cl   4.562800   5.286324   5.440665   6.797295   7.819846
                   11         12         13         14         15
    11  C    0.000000
    12  C    1.401400   0.000000
    13  H    5.074276   4.127917   0.000000
    14  H    7.612271   6.232802   4.280590   0.000000
    15  H    3.918930   2.578650   4.280590   4.280590   0.000000
    16  H    3.872800   3.396345   1.871400   5.974992   4.671787
    17  H    3.396345   3.872800   4.342800   8.329571   6.097816
    18  H    2.146700   3.396345   5.974992   9.285600   5.974992
    19  H    1.070000   2.146700   6.097816   8.329571   4.342800
    20  Cl   2.743718   1.760000   5.111382   5.906383   1.639199
    21  Cl   6.797295   5.440665   5.632800   2.879094   2.879094
    22  Cl   7.713260   6.549198   2.879094   2.879094   5.632800
                   16         17         18         19         20
    16  H    0.000000
    17  H    2.471400   0.000000
    18  H    4.280590   2.471400   0.000000
    19  H    4.942800   4.280590   2.471400   0.000000
    20  Cl   4.890332   5.632800   4.890332   2.879094   0.000000
    21  Cl   6.765486   8.663168   8.830073   7.184095   4.342800
    22  Cl   4.725732   7.184095   8.830073   8.663168   6.988795
                   21         22
    21  Cl   0.000000
    22  Cl   5.475705   0.000000
 Stoichiometry    C12H7Cl3
 Framework group  C1[X(C12H7Cl3)]
 Deg. of freedom    60
 Full point group                 C1      NOp   1
 Largest Abelian subgroup         C1      NOp   1
 Largest concise Abelian subgroup C1      NOp   1
                         Standard orientation:                         
 ---------------------------------------------------------------------
 Center     Atomic      Atomic             Coordinates (Angstroms)
 Number     Number       Type             X           Y           Z
 ---------------------------------------------------------------------
      1          6           0        0.036295   -0.351060    0.000002
      2          6           0       -0.839520   -1.445075    0.000001
      3          6           0       -2.224873   -1.233605   -0.000001
      4          6           0       -2.734411    0.071880   -0.000002
      5          6           0       -1.858596    1.165896    0.000001
      6          6           0       -0.473243    0.954426    0.000003
      7          6           0        1.558660   -0.583445    0.000003
      8          6           0        2.068198   -1.888930    0.000004
      9          6           0        3.453551   -2.100401    0.000003
     10          6           0        4.329366   -1.006385    0.000001
     11          6           0        3.819828    0.299101   -0.000001
     12          6           0        2.434475    0.510571   -0.000001
     13          1           0       -0.450477   -2.441843   -0.000000
     14          1           0       -3.792158    0.233343   -0.000003
     15          1           0        0.195461    1.789731    0.000004
     16          1           0        1.399494   -2.724236    0.000003
     17          1           0        3.842595   -3.097168    0.000004
     18          1           0        5.387114   -1.167847   -0.000001
     19          1           0        4.488532    1.134406   -0.000006
     20         17           0        1.794553    2.150114   -0.000005
     21         17           0       -2.498518    2.805439    0.000003
     22         17           0       -3.324798   -2.607565   -0.000003
 ---------------------------------------------------------------------
 Rotational constants (GHZ):           0.5670939           0.2981888           0.1954287
 Standard basis: 6-311+G(d,p) (5D, 7F)
 There are   411 symmetry adapted cartesian basis functions of A   symmetry.
 There are   396 symmetry adapted basis functions of A   symmetry.
   396 basis functions,   647 primitive gaussians,   411 cartesian basis functions
    65 alpha electrons       65 beta electrons
       nuclear repulsion energy      1197.1514162639 Hartrees.
 NAtoms=   22 NActive=   22 NUniq=   22 SFac= 1.00D+00 NAtFMM=   60 NAOKFM=F Big=F
 Integral buffers will be    131072 words long.
 Raffenetti 2 integral format.
 Two-electron integral symmetry is turned on.
 One-electron integrals computed using PRISM.
 NBasis=   396 RedAO= T EigKep=  1.07D-06  NBF=   396
 NBsUse=   392 1.00D-06 EigRej=  4.73D-07 NBFU=   392
 ExpMin= 4.38D-02 ExpMax= 1.06D+05 ExpMxC= 3.62D+03 IAcc=3 IRadAn=         5 AccDes= 0.00D+00
 Harris functional with IExCor=  402 and IRadAn=       5 diagonalized for initial guess.
 HarFok:  IExCor=  402 AccDes= 0.00D+00 IRadAn=         5 IDoV= 1 UseB2=F ITyADJ=14
 ICtDFT=  3500011 ScaDFX=  1.000000  1.000000  1.000000  1.000000
 FoFCou: FMM=F IPFlag=           0 FMFlag=      100000 FMFlg1=           0
         NFxFlg=           0 DoJE=T BraDBF=F KetDBF=T FulRan=T
         wScrn=  0.000000 ICntrl=       500 IOpCl=  0 I1Cent=   200000004 NGrid=           0
         NMat0=    1 NMatS0=      1 NMatT0=    0 NMatD0=    1 NMtDS0=    0 NMtDT0=    0
 Petite list used in FoFCou.
 Requested convergence on RMS density matrix=1.00D-08 within  32 cycles.
 Requested convergence on MAX density matrix=1.00D-06.
 Requested convergence on             energy=1.00D-06.
 No special actions if energy rises.
 SCF Done:  E(RB3LYP) =  -1842.22450207     A.U. after   17 cycles
            NFock= 17  Conv=0.25D-08     -V/T= 2.0028
 QCSCF skips out because SCF is already converged.

 **********************************************************************

            Population analysis using the SCF Density.

 **********************************************************************

 Orbital symmetries:
       Occupied  (A) (A) (A) (A) (A) (A) (A) (A) (A) (A) (A) (A)
                 (A) (A) (A) (A) (A) (A) (A) (A) (A) (A) (A) (A)
                 (A) (A) (A) (A) (A) (A) (A) (A) (A) (A) (A) (A)
                 (A) (A) (A) (A) (A) (A) (A) (A) (A) (A) (A) (A)
                 (A) (A) (A) (A) (A) (A) (A) (A) (A) (A) (A) (A)
                 (A) (A) (A) (A) (A)
       Virtual   (A) (A) (A) (A) (A) (A) (A) (A) (A) (A) (A) (A)
                 (A) (A) (A) (A) (A) (A) (A) (A) (A) (A) (A) (A)
                 (A) (A) (A) (A) (A) (A) (A) (A) (A) (A) (A) (A)
                 (A) (A) (A) (A) (A) (A) (A) (A) (A) (A) (A) (A)
                 (A) (A) (A) (A) (A) (A) (A) (A) (A) (A) (A) (A)
                 (A) (A) (A) (A) (A) (A) (A) (A) (A) (A) (A) (A)
                 (A) (A) (A) (A) (A) (A) (A) (A) (A) (A) (A) (A)
                 (A) (A) (A) (A) (A) (A) (A) (A) (A) (A) (A) (A)
                 (A) (A) (A) (A) (A) (A) (A) (A) (A) (A) (A) (A)
                 (A) (A) (A) (A) (A) (A) (A) (A) (A) (A) (A) (A)
                 (A) (A) (A) (A) (A) (A) (A) (A) (A) (A) (A) (A)
                 (A) (A) (A) (A) (A) (A) (A) (A) (A) (A) (A) (A)
                 (A) (A) (A) (A) (A) (A) (A) (A) (A) (A) (A) (A)
                 (A) (A) (A) (A) (A) (A) (A) (A) (A) (A) (A) (A)
                 (A) (A) (A) (A) (A) (A) (A) (A) (A) (A) (A) (A)
                 (A) (A) (A) (A) (A) (A) (A) (A) (A) (A) (A) (A)
                 (A) (A) (A) (A) (A) (A) (A) (A) (A) (A) (A) (A)
                 (A) (A) (A) (A) (A) (A) (A) (A) (A) (A) (A) (A)
                 (A) (A) (A) (A) (A) (A) (A) (A) (A) (A) (A) (A)
                 (A) (A) (A) (A) (A) (A) (A) (A) (A) (A) (A) (A)
                 (A) (A) (A) (A) (A) (A) (A) (A) (A) (A) (A) (A)
                 (A) (A) (A) (A) (A) (A) (A) (A) (A) (A) (A) (A)
                 (A) (A) (A) (A) (A) (A) (A) (A) (A) (A) (A) (A)
                 (A) (A) (A) (A) (A) (A) (A) (A) (A) (A) (A) (A)
                 (A) (A) (A) (A) (A) (A) (A) (A) (A) (A) (A) (A)
                 (A) (A) (A) (A) (A) (A) (A) (A) (A) (A) (A) (A)
                 (A) (A) (A) (A) (A) (A) (A) (A) (A) (A) (A) (A)
                 (A) (A) (A)
 The electronic state is 1-A.
 Alpha  occ. eigenvalues -- -101.57223-101.56522-101.56238 -10.26214 -10.25669
 Alpha  occ. eigenvalues --  -10.25192 -10.22444 -10.21847 -10.20834 -10.20469
 Alpha  occ. eigenvalues --  -10.20349 -10.20304 -10.20192 -10.20096 -10.17670
 Alpha  occ. eigenvalues --   -9.49018  -9.47956  -9.47676  -7.25412  -7.24472
 Alpha  occ. eigenvalues --   -7.24458  -7.24428  -7.24141  -7.23434  -7.23403
 Alpha  occ. eigenvalues --   -7.23159  -7.23126  -0.92884  -0.90927  -0.88032
 Alpha  occ. eigenvalues --   -0.86668  -0.84083  -0.79170  -0.76463  -0.75069
 Alpha  occ. eigenvalues --   -0.74502  -0.65544  -0.63820  -0.61585  -0.60587
 Alpha  occ. eigenvalues --   -0.54806  -0.53868  -0.51053  -0.49632  -0.48138
 Alpha  occ. eigenvalues --   -0.47272  -0.45676  -0.45249  -0.44970  -0.43264
 Alpha  occ. eigenvalues --   -0.41130  -0.41129  -0.40117  -0.38423  -0.37878
 Alpha  occ. eigenvalues --   -0.37090  -0.36112  -0.34000  -0.33027  -0.32303
 Alpha  occ. eigenvalues --   -0.29650  -0.28636  -0.27475  -0.25712  -0.25206
 Alpha virt. eigenvalues --   -0.06763  -0.04902  -0.03242  -0.01398  -0.00742
 Alpha virt. eigenvalues --   -0.00586  -0.00375   0.00870   0.01610   0.01945
 Alpha virt. eigenvalues --    0.02788   0.03511   0.04245   0.04292   0.05494
 Alpha virt. eigenvalues --    0.05599   0.05920   0.06644   0.06815   0.08315
 Alpha virt. eigenvalues --    0.08613   0.08690   0.08826   0.09166   0.10032
 Alpha virt. eigenvalues --    0.10856   0.11070   0.11188   0.11465   0.11731
 Alpha virt. eigenvalues --    0.12500   0.12857   0.12946   0.13885   0.13990
 Alpha virt. eigenvalues --    0.14029   0.14564   0.15914   0.16009   0.16252
 Alpha virt. eigenvalues --    0.16859   0.17113   0.17262   0.17774   0.17999
 Alpha virt. eigenvalues --    0.18864   0.18929   0.19180   0.19729   0.20259
 Alpha virt. eigenvalues --    0.20475   0.20634   0.21007   0.21560   0.22063
 Alpha virt. eigenvalues --    0.22064   0.22145   0.23280   0.23394   0.23653
 Alpha virt. eigenvalues --    0.24055   0.24961   0.25427   0.26513   0.26765
 Alpha virt. eigenvalues --    0.27520   0.28173   0.28243   0.28745   0.29817
 Alpha virt. eigenvalues --    0.30620   0.31587   0.32074   0.32588   0.32838
 Alpha virt. eigenvalues --    0.34068   0.34828   0.35294   0.36099   0.37026
 Alpha virt. eigenvalues --    0.38183   0.40710   0.41911   0.43756   0.43777
 Alpha virt. eigenvalues --    0.45476   0.45607   0.46675   0.46754   0.47152
 Alpha virt. eigenvalues --    0.48770   0.49453   0.50330   0.51611   0.51722
 Alpha virt. eigenvalues --    0.52720   0.53082   0.53644   0.53763   0.55149
 Alpha virt. eigenvalues --    0.55950   0.56219   0.57443   0.58066   0.59015
 Alpha virt. eigenvalues --    0.59248   0.59398   0.60836   0.61005   0.61741
 Alpha virt. eigenvalues --    0.62697   0.64139   0.64749   0.65200   0.66716
 Alpha virt. eigenvalues --    0.67141   0.68194   0.68740   0.69143   0.69642
 Alpha virt. eigenvalues --    0.70639   0.72644   0.73970   0.76397   0.79020
 Alpha virt. eigenvalues --    0.80112   0.80695   0.81538   0.82052   0.83693
 Alpha virt. eigenvalues --    0.83846   0.84487   0.85204   0.85299   0.85438
 Alpha virt. eigenvalues --    0.86258   0.86565   0.87262   0.87308   0.88208
 Alpha virt. eigenvalues --    0.88449   0.88786   0.89864   0.90911   0.91280
 Alpha virt. eigenvalues --    0.91836   0.94910   0.95175   0.95605   0.96044
 Alpha virt. eigenvalues --    0.97334   0.97670   0.98964   0.99524   0.99665
 Alpha virt. eigenvalues --    1.00488   1.01187   1.03039   1.06659   1.07216
 Alpha virt. eigenvalues --    1.07478   1.09063   1.09590   1.10236   1.11997
 Alpha virt. eigenvalues --    1.13269   1.15304   1.19499   1.21744   1.23049
 Alpha virt. eigenvalues --    1.23956   1.26265   1.26915   1.28040   1.30665
 Alpha virt. eigenvalues --    1.30769   1.34023   1.35847   1.38006   1.44501
 Alpha virt. eigenvalues --    1.46098   1.47973   1.48424   1.50495   1.53515
 Alpha virt. eigenvalues --    1.54300   1.54685   1.55238   1.58174   1.59863
 Alpha virt. eigenvalues --    1.60095   1.61053   1.61191   1.62539   1.64938
 Alpha virt. eigenvalues --    1.68719   1.69001   1.69585   1.72925   1.73621
 Alpha virt. eigenvalues --    1.75454   1.78125   1.83592   1.84071   1.85673
 Alpha virt. eigenvalues --    1.87714   1.88043   1.88779   1.89763   1.90195
 Alpha virt. eigenvalues --    1.92587   1.93809   1.94028   1.94726   1.96793
 Alpha virt. eigenvalues --    1.98305   1.98951   1.99817   2.03155   2.03950
 Alpha virt. eigenvalues --    2.04216   2.05328   2.08367   2.11920   2.16172
 Alpha virt. eigenvalues --    2.20108   2.23244   2.24247   2.26212   2.26425
 Alpha virt. eigenvalues --    2.28013   2.28169   2.31624   2.33784   2.34049
 Alpha virt. eigenvalues --    2.35734   2.40063   2.40996   2.41655   2.42956
 Alpha virt. eigenvalues --    2.47298   2.50899   2.52633   2.54422   2.55916
 Alpha virt. eigenvalues --    2.56114   2.59458   2.61780   2.62523   2.63889
 Alpha virt. eigenvalues --    2.65620   2.67994   2.69775   2.71158   2.72701
 Alpha virt. eigenvalues --    2.73636   2.74258   2.74823   2.75636   2.75780
 Alpha virt. eigenvalues --    2.77276   2.79024   2.79596   2.81726   2.84214
 Alpha virt. eigenvalues --    2.84305   2.85682   2.85696   2.91502   2.93555
 Alpha virt. eigenvalues --    2.94956   3.05739   3.06491   3.08276   3.11711
 Alpha virt. eigenvalues --    3.15268   3.19108   3.21968   3.22378   3.23829
 Alpha virt. eigenvalues --    3.32809   3.33785   3.37488   3.40379   3.51423
 Alpha virt. eigenvalues --    3.52803   3.58422   3.60113   3.70614   3.74118
 Alpha virt. eigenvalues --    3.81032   3.87157   4.03211   4.07690   4.10873
 Alpha virt. eigenvalues --    4.15156   4.19896   4.47402   4.80154   4.83583
 Alpha virt. eigenvalues --    9.76356   9.78883   9.88271  23.45575  23.59202
 Alpha virt. eigenvalues --   23.85116  23.87880  23.89776  23.92973  24.01097
 Alpha virt. eigenvalues --   24.03235  24.04496  24.05093  24.12106  24.13871
 Alpha virt. eigenvalues --   25.81316  25.81978  25.85232  26.09272  26.19582
 Alpha virt. eigenvalues --   26.59718  26.61493  26.66871  26.79868 215.75316
 Alpha virt. eigenvalues --  215.78258 215.90767
          Condensed to atoms (all electrons):
               1          2          3          4          5          6
     1  C   18.118279  -1.612549  -3.589171   0.373166  -2.387269  -2.510980
     2  C   -1.612549  16.766290   3.222307  -6.923462  -1.671205  -0.460219
     3  C   -3.589171   3.222307  16.794170  -3.424449  -3.841744  -0.097026
     4  C    0.373166  -6.923462  -3.424449  26.641473  -2.989264  -7.599718
     5  C   -2.387269  -1.671205  -3.841744  -2.989264  18.610831   0.132681
     6  C   -2.510980  -0.460219  -0.097026  -7.599718   0.132681  18.586669
     7  C    5.119491  -0.053134  -1.337744  -1.074651  -1.879020  -1.518668
     8  C   -1.247745   2.764440   0.032022   0.512340  -1.516302  -3.167204
     9  C   -0.554257  -1.280143   0.149292   0.099912  -0.098024   0.049303
    10  C   -0.831096  -0.029676  -0.042304   0.055011   0.055944   0.085157
    11  C   -2.885236  -0.717518  -0.203963   0.282855   1.582242  -0.710239
    12  C   -1.153542  -4.648819  -1.654059   0.882784   0.757093   3.892435
    13  H    0.137156   0.107300  -0.135835   0.088051   0.023409  -0.021386
    14  H    0.052843   0.042575  -0.001235   0.139342   0.040774   0.065188
    15  H   -0.133875  -0.032907   0.005614   0.141230   0.166097   0.099274
    16  H    0.014022   0.097181   0.003589  -0.010649  -0.000149  -0.005752
    17  H    0.001789   0.014552   0.002318   0.000324  -0.000384  -0.001466
    18  H    0.000248   0.002750   0.000316  -0.000011   0.000019  -0.001218
    19  H    0.001979  -0.000897  -0.000422   0.000181   0.000155   0.005198
    20  Cl   0.501571   0.301858   0.062309  -0.020979  -1.079563  -0.444588
    21  Cl  -0.317887   0.069396   0.078915  -0.283282  -0.730370   0.635600
    22  Cl  -0.547545   0.710968  -0.710888  -0.228185   0.017249   0.163104
               7          8          9         10         11         12
     1  C    5.119491  -1.247745  -0.554257  -0.831096  -2.885236  -1.153542
     2  C   -0.053134   2.764440  -1.280143  -0.029676  -0.717518  -4.648819
     3  C   -1.337744   0.032022   0.149292  -0.042304  -0.203963  -1.654059
     4  C   -1.074651   0.512340   0.099912   0.055011   0.282855   0.882784
     5  C   -1.879020  -1.516302  -0.098024   0.055944   1.582242   0.757093
     6  C   -1.518668  -3.167204   0.049303   0.085157  -0.710239   3.892435
     7  C   14.637650  -2.987178   0.887125  -1.850056   1.177517  -4.845898
     8  C   -2.987178  15.689101  -4.079832   0.952601   0.000337  -1.795321
     9  C    0.887125  -4.079832  10.961184   0.271853  -0.268092   0.151703
    10  C   -1.850056   0.952601   0.271853   7.197623   1.518908  -1.589618
    11  C    1.177517   0.000337  -0.268092   1.518908  18.807571 -11.659528
    12  C   -4.845898  -1.795321   0.151703  -1.589618 -11.659528  27.751249
    13  H    0.072946  -0.015539   0.051741  -0.005313   0.005490   0.035013
    14  H    0.013250   0.002644   0.000252  -0.000017  -0.000129  -0.001251
    15  H   -0.039432   0.005417  -0.011604   0.022171   0.230758   0.003074
    16  H    0.047816   0.392424  -0.144746  -0.004887  -0.001722  -0.064299
    17  H    0.032007  -0.033074   0.356657   0.012474  -0.032912  -0.002875
    18  H    0.041145  -0.037108  -0.002379   0.354153   0.015005  -0.024557
    19  H    0.047893  -0.000454  -0.028542  -0.041451   0.401248  -0.019626
    20  Cl  -0.211177   0.655889  -0.039038   0.028353  -1.137236  -0.150655
    21  Cl  -0.090888  -0.089602  -0.003756  -0.004826   0.011795  -0.012431
    22  Cl  -0.099431  -0.050984  -0.003638  -0.000961  -0.007375  -0.058304
              13         14         15         16         17         18
     1  C    0.137156   0.052843  -0.133875   0.014022   0.001789   0.000248
     2  C    0.107300   0.042575  -0.032907   0.097181   0.014552   0.002750
     3  C   -0.135835  -0.001235   0.005614   0.003589   0.002318   0.000316
     4  C    0.088051   0.139342   0.141230  -0.010649   0.000324  -0.000011
     5  C    0.023409   0.040774   0.166097  -0.000149  -0.000384   0.000019
     6  C   -0.021386   0.065188   0.099274  -0.005752  -0.001466  -0.001218
     7  C    0.072946   0.013250  -0.039432   0.047816   0.032007   0.041145
     8  C   -0.015539   0.002644   0.005417   0.392424  -0.033074  -0.037108
     9  C    0.051741   0.000252  -0.011604  -0.144746   0.356657  -0.002379
    10  C   -0.005313  -0.000017   0.022171  -0.004887   0.012474   0.354153
    11  C    0.005490  -0.000129   0.230758  -0.001722  -0.032912   0.015005
    12  C    0.035013  -0.001251   0.003074  -0.064299  -0.002875  -0.024557
    13  H    0.546645  -0.000292  -0.000041   0.002840  -0.000001  -0.000002
    14  H   -0.000292   0.501934  -0.000547   0.000001  -0.000000  -0.000000
    15  H   -0.000041  -0.000547   0.678698  -0.000101   0.000001  -0.000004
    16  H    0.002840   0.000001  -0.000101   0.550655  -0.006894  -0.000282
    17  H   -0.000001  -0.000000   0.000001  -0.006894   0.530617  -0.007334
    18  H   -0.000002  -0.000000  -0.000004  -0.000282  -0.007334   0.527635
    19  H    0.000001  -0.000000   0.000015   0.000078  -0.000233  -0.007435
    20  Cl  -0.001208   0.000433  -0.248284  -0.000138   0.000533   0.002417
    21  Cl   0.000377  -0.006430  -0.034841   0.000063  -0.000001   0.000001
    22  Cl  -0.027261  -0.008863   0.000997   0.000356   0.000008   0.000001
              19         20         21         22
     1  C    0.001979   0.501571  -0.317887  -0.547545
     2  C   -0.000897   0.301858   0.069396   0.710968
     3  C   -0.000422   0.062309   0.078915  -0.710888
     4  C    0.000181  -0.020979  -0.283282  -0.228185
     5  C    0.000155  -1.079563  -0.730370   0.017249
     6  C    0.005198  -0.444588   0.635600   0.163104
     7  C    0.047893  -0.211177  -0.090888  -0.099431
     8  C   -0.000454   0.655889  -0.089602  -0.050984
     9  C   -0.028542  -0.039038  -0.003756  -0.003638
    10  C   -0.041451   0.028353  -0.004826  -0.000961
    11  C    0.401248  -1.137236   0.011795  -0.007375
    12  C   -0.019626  -0.150655  -0.012431  -0.058304
    13  H    0.000001  -0.001208   0.000377  -0.027261
    14  H   -0.000000   0.000433  -0.006430  -0.008863
    15  H    0.000015  -0.248284  -0.034841   0.000997
    16  H    0.000078  -0.000138   0.000063   0.000356
    17  H   -0.000233   0.000533  -0.000001   0.000008
    18  H   -0.007435   0.002417   0.000001   0.000001
    19  H    0.510453  -0.017845  -0.000008  -0.000000
    20  Cl  -0.017845  18.210716  -0.057315   0.000886
    21  Cl  -0.000008  -0.057315  17.452727  -0.013661
    22  Cl  -0.000000   0.000886  -0.013661  17.437939
 Mulliken charges:
               1
     1  C   -0.549390
     2  C   -0.669086
     3  C    0.687988
     4  C   -0.662018
     5  C    0.806800
     6  C   -1.176145
     7  C   -0.089563
     8  C    0.013129
     9  C   -0.464972
    10  C   -0.154041
    11  C   -0.409778
    12  C    0.207432
    13  H    0.135909
    14  H    0.159528
    15  H    0.148290
    16  H    0.130597
    17  H    0.133892
    18  H    0.136640
    19  H    0.149714
    20  Cl   0.643061
    21  Cl   0.396424
    22  Cl   0.425589
 Sum of Mulliken charges =  -0.00000
 Mulliken charges with hydrogens summed into heavy atoms:
               1
     1  C   -0.549390
     2  C   -0.533177
     3  C    0.687988
     4  C   -0.502490
     5  C    0.806800
     6  C   -1.027854
     7  C   -0.089563
     8  C    0.143726
     9  C   -0.331079
    10  C   -0.017401
    11  C   -0.260064
    12  C    0.207432
    20  Cl   0.643061
    21  Cl   0.396424
    22  Cl   0.425589
 Electronic spatial extent (au):  <R**2>=           4980.2386
 Charge=             -0.0000 electrons
 Dipole moment (field-independent basis, Debye):
    X=              3.1446    Y=             -1.4598    Z=             -0.0000  Tot=              3.4669
 Quadrupole moment (field-independent basis, Debye-Ang):
   XX=            -98.7358   YY=           -105.8771   ZZ=           -112.6271
   XY=             -4.4007   XZ=             -0.0000   YZ=             -0.0000
 Traceless Quadrupole moment (field-independent basis, Debye-Ang):
   XX=              7.0109   YY=             -0.1304   ZZ=             -6.8805
   XY=             -4.4007   XZ=             -0.0000   YZ=             -0.0000
 Octapole moment (field-independent basis, Debye-Ang**2):
  XXX=             49.4517  YYY=             -4.0643  ZZZ=             -0.0000  XYY=             17.3871
  XXY=             -3.9075  XXZ=             -0.0001  XZZ=            -11.8435  YZZ=              7.5467
  YYZ=              0.0000  XYZ=             -0.0000
 Hexadecapole moment (field-independent basis, Debye-Ang**3):
 XXXX=          -3995.7034 YYYY=          -2129.5270 ZZZZ=           -132.4999 XXXY=            -40.3583
 XXXZ=             -0.0005 YYYX=            -25.0725 YYYZ=             -0.0000 ZZZX=             -0.0001
 ZZZY=              0.0001 XXYY=          -1079.6177 XXZZ=           -805.3117 YYZZ=           -408.3806
 XXYZ=             -0.0001 YYXZ=              0.0000 ZZXY=             17.2939
 N-N= 1.197151416264D+03 E-N=-6.746260815617D+03  KE= 1.837132704001D+03
 Calling FoFJK, ICntrl=      2127 FMM=F ISym2X=0 I1Cent= 0 IOpClX= 0 NMat=1 NMatS=1 NMatT=0.
 ***** Axes restored to original set *****
 -------------------------------------------------------------------
 Center     Atomic                   Forces (Hartrees/Bohr)
 Number     Number              X              Y              Z
 -------------------------------------------------------------------
      1        6          -0.010454443   -0.018814430   -0.000089355
      2        6           0.003320125    0.013998090    0.001535260
      3        6          -0.017194350   -0.005272857    0.004674586
      4        6          -0.002389265    0.000304543    0.000844152
      5        6           0.013550211   -0.020549314   -0.008323482
      6        6           0.040156808    0.033529087   -0.006932991
      7        6           0.019287408    0.037271154    0.000645658
      8        6          -0.023022887   -0.011458454    0.005433119
      9        6          -0.004091047    0.015617606    0.004280892
     10        6           0.009459584    0.016647654    0.000010094
     11        6           0.009474207    0.001600808   -0.002820538
     12        6           0.005320246   -0.016877934   -0.004922729
     13        1           0.006422828   -0.003067976   -0.002692282
     14        1           0.005188768    0.007517835   -0.000297530
     15        1           0.039186598    0.026683079   -0.007899254
     16        1           0.006018279   -0.001719132   -0.002305750
     17        1           0.004451493   -0.007957870   -0.002961100
     18        1          -0.005744475   -0.007341213    0.000513760
     19        1          -0.008677318    0.000870028    0.003022128
     20       17          -0.088537606   -0.058485178    0.018185648
     21       17           0.002060083   -0.002949427   -0.001232597
     22       17          -0.003785246    0.000453902    0.001332313
 -------------------------------------------------------------------
 Cartesian Forces:  Max     0.088537606 RMS     0.018423146

 GradGradGradGradGradGradGradGradGradGradGradGradGradGradGradGradGradGrad
 Berny optimization.
 FormGI is forming the generalized inverse of G from B-inverse, IUseBI=4.
 Internal  Forces:  Max     0.275553287 RMS     0.050241086
 Search for a local minimum.
 Step number   1 out of a maximum of  121
 All quantities printed in internal units (Hartrees-Bohrs-Radians)
 Mixed Optimization -- RFO/linear search
 Second derivative matrix not updated -- first step.
 ITU=  0
     Eigenvalues ---    0.00237   0.01506   0.01506   0.02070   0.02070
     Eigenvalues ---    0.02070   0.02070   0.02070   0.02070   0.02070
     Eigenvalues ---    0.02070   0.02070   0.02070   0.02070   0.02070
     Eigenvalues ---    0.02070   0.02070   0.02070   0.02070   0.16000
     Eigenvalues ---    0.16000   0.16000   0.16000   0.16000   0.16000
     Eigenvalues ---    0.16000   0.22000   0.22493   0.23478   0.23478
     Eigenvalues ---    0.23500   0.24487   0.25000   0.25000   0.25000
     Eigenvalues ---    0.25000   0.25000   0.28519   0.29539   0.29539
     Eigenvalues ---    0.29539   0.37230   0.37230   0.37230   0.37230
     Eigenvalues ---    0.37230   0.37230   0.37230   0.41369   0.41539
     Eigenvalues ---    0.41554   0.41554   0.45389   0.45389   0.45389
     Eigenvalues ---    0.45389   0.45389   0.45389   0.45389   0.45389
 RFO step:  Lambda=-4.14595742D-01 EMin= 2.36824243D-03
 Linear search not attempted -- first point.
 Maximum step size (   0.300) exceeded in Quadratic search.
    -- Step size scaled by   0.382
 Iteration  1 RMS(Cart)=  0.19563895 RMS(Int)=  0.01004085
 Iteration  2 RMS(Cart)=  0.03677981 RMS(Int)=  0.00032783
 Iteration  3 RMS(Cart)=  0.00059908 RMS(Int)=  0.00004514
 Iteration  4 RMS(Cart)=  0.00000022 RMS(Int)=  0.00004514
 Variable       Old X    -DE/DX   Delta X   Delta X   Delta X     New X
                                 (Linear)    (Quad)   (Total)
    R1        2.64826   0.01650   0.00000   0.00747   0.00751   2.65577
    R2        2.64826   0.01507   0.00000   0.00696   0.00700   2.65526
    R3        2.91018   0.06598   0.00000   0.03604   0.03604   2.94622
    R4        2.64826  -0.01465   0.00000  -0.00656  -0.00656   2.64170
    R5        2.02201   0.00627   0.00000   0.00304   0.00304   2.02505
    R6        2.64826  -0.02841   0.00000  -0.01283  -0.01287   2.63539
    R7        3.32592  -0.00400   0.00000  -0.00215  -0.00215   3.32376
    R8        2.64826  -0.02589   0.00000  -0.01161  -0.01164   2.63662
    R9        2.02201   0.00911   0.00000   0.00443   0.00443   2.02643
   R10        2.64826  -0.00432   0.00000  -0.00179  -0.00179   2.64648
   R11        3.32592  -0.00378   0.00000  -0.00203  -0.00203   3.32388
   R12        2.02201  -0.04027   0.00000  -0.01956  -0.01956   2.00244
   R13        2.64826   0.01954   0.00000   0.00925   0.00935   2.65761
   R14        2.64826   0.11966   0.00000   0.05387   0.05394   2.70221
   R15        2.64826  -0.02226   0.00000  -0.01036  -0.01033   2.63793
   R16        2.02201   0.00640   0.00000   0.00311   0.00311   2.02512
   R17        2.64826  -0.03915   0.00000  -0.01843  -0.01851   2.62975
   R18        2.02201   0.00958   0.00000   0.00466   0.00466   2.02666
   R19        2.64826  -0.03001   0.00000  -0.01385  -0.01395   2.63431
   R20        2.02201   0.00924   0.00000   0.00449   0.00449   2.02650
   R21        2.64826   0.00303   0.00000   0.00189   0.00187   2.65013
   R22        2.02201   0.00917   0.00000   0.00445   0.00445   2.02646
   R23        3.32592  -0.00423   0.00000  -0.00228  -0.00228   3.32364
    A1        2.09440  -0.05862   0.00000  -0.03313  -0.03305   2.06134
    A2        2.09440  -0.13056   0.00000  -0.07539  -0.07543   2.01896
    A3        2.09440   0.18918   0.00000   0.10852   0.10848   2.20288
    A4        2.09440   0.03347   0.00000   0.02016   0.02020   2.11459
    A5        2.09440  -0.01237   0.00000  -0.00717  -0.00719   2.08720
    A6        2.09440  -0.02110   0.00000  -0.01298  -0.01300   2.08139
    A7        2.09440   0.00852   0.00000   0.00418   0.00414   2.09853
    A8        2.09440  -0.00335   0.00000  -0.00156  -0.00155   2.09285
    A9        2.09440  -0.00517   0.00000  -0.00261  -0.00259   2.09180
   A10        2.09440  -0.02060   0.00000  -0.01330  -0.01337   2.08102
   A11        2.09440   0.00957   0.00000   0.00616   0.00620   2.10059
   A12        2.09440   0.01104   0.00000   0.00714   0.00718   2.10157
   A13        2.09440   0.02116   0.00000   0.01192   0.01188   2.10627
   A14        2.09440  -0.01133   0.00000  -0.00639  -0.00637   2.08803
   A15        2.09440  -0.00983   0.00000  -0.00553  -0.00551   2.08889
   A16        2.09440   0.01608   0.00000   0.01017   0.01021   2.10461
   A17        2.09440   0.01849   0.00000   0.01256   0.01254   2.10694
   A18        2.09440  -0.03457   0.00000  -0.02274  -0.02275   2.07164
   A19        2.09440  -0.19847   0.00000  -0.11521  -0.11530   1.97910
   A20        2.09440   0.27555   0.00000   0.15745   0.15735   2.25175
   A21        2.09440  -0.07708   0.00000  -0.04224  -0.04206   2.05234
   A22        2.09440   0.05762   0.00000   0.03445   0.03458   2.12897
   A23        2.09440  -0.02690   0.00000  -0.01596  -0.01602   2.07837
   A24        2.09440  -0.03071   0.00000  -0.01849  -0.01856   2.07584
   A25        2.09440   0.00143   0.00000  -0.00197  -0.00202   2.09238
   A26        2.09440  -0.00093   0.00000   0.00084   0.00087   2.09526
   A27        2.09440  -0.00050   0.00000   0.00113   0.00115   2.09555
   A28        2.09440  -0.00616   0.00000  -0.00666  -0.00685   2.08755
   A29        2.09440   0.00443   0.00000   0.00423   0.00432   2.09872
   A30        2.09440   0.00173   0.00000   0.00243   0.00252   2.09692
   A31        2.09440   0.03741   0.00000   0.02204   0.02191   2.11630
   A32        2.09440  -0.01761   0.00000  -0.01029  -0.01022   2.08417
   A33        2.09440  -0.01980   0.00000  -0.01175  -0.01168   2.08271
   A34        2.09440  -0.01321   0.00000  -0.00562  -0.00556   2.08883
   A35        2.09440   0.18550   0.00000   0.10570   0.10568   2.20007
   A36        2.09440  -0.17229   0.00000  -0.10009  -0.10011   1.99428
    D1        0.00000   0.00000   0.00000   0.00000   0.00000   0.00000
    D2        3.14159   0.00000   0.00000   0.00000   0.00000   3.14159
    D3       -3.14159   0.00000   0.00000  -0.00000  -0.00000  -3.14159
    D4       -0.00000  -0.00000   0.00000  -0.00000  -0.00000  -0.00000
    D5       -0.00000  -0.00000   0.00000  -0.00000  -0.00000  -0.00000
    D6        3.14159  -0.00000   0.00000  -0.00000  -0.00000   3.14159
    D7        3.14159   0.00000   0.00000   0.00000   0.00000   3.14159
    D8        0.00000  -0.00000   0.00000  -0.00000  -0.00000   0.00000
    D9       -0.00000  -0.00000   0.00000  -0.00000  -0.00000  -0.00000
   D10        3.14159  -0.00000   0.00000  -0.00000  -0.00000   3.14159
   D11        3.14159  -0.00000   0.00000  -0.00000  -0.00000   3.14159
   D12       -0.00000  -0.00000   0.00000  -0.00000  -0.00000  -0.00000
   D13        0.00000  -0.00000   0.00000  -0.00000  -0.00000   0.00000
   D14        3.14159  -0.00000   0.00000  -0.00000  -0.00000   3.14159
   D15       -3.14159  -0.00000   0.00000  -0.00000  -0.00000  -3.14159
   D16        0.00000  -0.00000   0.00000  -0.00000  -0.00000   0.00000
   D17       -0.00000   0.00000   0.00000   0.00000   0.00000  -0.00000
   D18        3.14159   0.00000   0.00000   0.00000   0.00000   3.14159
   D19        3.14159  -0.00000   0.00000  -0.00000  -0.00000   3.14159
   D20        0.00000  -0.00000   0.00000  -0.00000  -0.00000   0.00000
   D21        0.00000   0.00000   0.00000   0.00000   0.00000   0.00000
   D22       -3.14159   0.00000   0.00000   0.00000   0.00000  -3.14159
   D23       -3.14159  -0.00000   0.00000  -0.00000  -0.00000  -3.14159
   D24        0.00000   0.00000   0.00000   0.00000   0.00000   0.00000
   D25       -0.00000   0.00000   0.00000   0.00000   0.00000  -0.00000
   D26        3.14159   0.00000   0.00000   0.00000   0.00000   3.14159
   D27        3.14159   0.00000   0.00000  -0.00000  -0.00000   3.14159
   D28       -0.00000   0.00000   0.00000   0.00000   0.00000  -0.00000
   D29        3.14159   0.00000   0.00000   0.00000   0.00000   3.14159
   D30        0.00000   0.00000   0.00000   0.00000   0.00000   0.00000
   D31        0.00000   0.00000   0.00000   0.00000   0.00000   0.00000
   D32       -3.14159  -0.00000   0.00000  -0.00000  -0.00000  -3.14159
   D33       -3.14159   0.00000   0.00000   0.00000   0.00000  -3.14159
   D34        0.00000  -0.00000   0.00000  -0.00000  -0.00000   0.00000
   D35       -0.00000  -0.00000   0.00000  -0.00000  -0.00000  -0.00000
   D36        3.14159  -0.00000   0.00000  -0.00000  -0.00000   3.14159
   D37       -0.00000   0.00000   0.00000  -0.00000  -0.00000  -0.00000
   D38        3.14159  -0.00000   0.00000  -0.00000  -0.00000   3.14159
   D39        3.14159   0.00000   0.00000   0.00000   0.00000   3.14159
   D40       -0.00000   0.00000   0.00000   0.00000   0.00000  -0.00000
   D41       -0.00000  -0.00000   0.00000  -0.00000  -0.00000  -0.00000
   D42       -3.14159  -0.00000   0.00000  -0.00000  -0.00000  -3.14159
   D43        3.14159   0.00000   0.00000  -0.00000   0.00000   3.14159
   D44        0.00000  -0.00000   0.00000  -0.00000  -0.00000   0.00000
   D45        0.00000   0.00000   0.00000   0.00000   0.00000   0.00000
   D46       -3.14159   0.00000   0.00000   0.00000   0.00000  -3.14159
   D47        3.14159   0.00000   0.00000   0.00000   0.00000   3.14159
   D48        0.00000   0.00000   0.00000   0.00000   0.00000   0.00000
   D49        0.00000   0.00000   0.00000   0.00000   0.00000   0.00000
   D50       -3.14159   0.00000   0.00000   0.00000   0.00000  -3.14159
   D51        3.14159   0.00000   0.00000   0.00000   0.00000   3.14159
   D52       -0.00000   0.00000   0.00000   0.00000   0.00000  -0.00000
         Item               Value     Threshold  Converged?
 Maximum Force            0.275553     0.000450     NO 
 RMS     Force            0.050241     0.000300     NO 
 Maximum Displacement     0.980981     0.001800     NO 
 RMS     Displacement     0.227845     0.001200     NO 
 Predicted change in Energy=-1.468489D-01
 GradGradGradGradGradGradGradGradGradGradGradGradGradGradGradGradGradGrad

                          Input orientation:                          
 ---------------------------------------------------------------------
 Center     Atomic      Atomic             Coordinates (Angstroms)
 Number     Number       Type             X           Y           Z
 ---------------------------------------------------------------------
      1          6           0       -0.408411    0.058975    0.060442
      2          6           0        0.917167   -0.042202   -0.395278
      3          6           0        1.748017    1.080263   -0.458196
      4          6           0        1.270365    2.330438   -0.066036
      5          6           0       -0.043675    2.445893    0.388562
      6          6           0       -0.878776    1.323511    0.452896
      7          6           0       -1.220217   -1.271953    0.077936
      8          6           0       -0.483246   -2.381509   -0.373249
      9          6           0       -1.035995   -3.662014   -0.431633
     10          6           0       -2.354291   -3.866871   -0.035784
     11          6           0       -3.113018   -2.788511    0.416710
     12          6           0       -2.573581   -1.495661    0.481798
     13          1           0        1.300449   -0.995229   -0.700537
     14          1           0        1.906065    3.192730   -0.113523
     15          1           0       -1.871219    1.447137    0.803078
     16          1           0        0.533360   -2.241026   -0.681791
     17          1           0       -0.445604   -4.486383   -0.780965
     18          1           0       -2.784793   -4.848123   -0.078238
     19          1           0       -4.128558   -2.949898    0.720981
     20         17           0       -3.690774   -0.275588    1.079010
     21         17           0       -0.657036    4.017624    0.885819
     22         17           0        3.401868    0.916125   -1.033891
 ---------------------------------------------------------------------
                    Distance matrix (angstroms):
                    1          2          3          4          5
     1  C    0.000000
     2  C    1.405373   0.000000
     3  C    2.441761   1.397926   0.000000
     4  C    2.827336   2.421274   1.394589   0.000000
     5  C    2.436816   2.779971   2.406680   1.395239   0.000000
     6  C    1.405103   2.410390   2.790932   2.429403   1.400454
     7  C    1.559072   2.510902   3.825019   4.381888   3.911920
     8  C    2.479849   2.726537   4.119420   5.037060   4.906872
     9  C    3.805490   4.113296   5.499147   6.431363   6.242110
    10  C    4.382691   5.045768   6.440614   7.179533   6.735726
    11  C    3.943350   4.944081   6.273958   6.756533   6.068002
    12  C    2.698592   3.881641   5.118124   5.451154   4.684546
    13  H    2.147239   1.071611   2.136988   3.385788   3.851510
    14  H    3.899677   3.394420   2.146228   1.072342   2.147404
    15  H    2.149025   3.380722   3.850231   3.377148   2.123500
    16  H    2.593810   2.250384   3.543494   4.671254   4.842090
    17  H    4.622730   4.664402   5.991970   7.065743   7.041718
    18  H    5.453993   6.074694   7.472383   8.244768   7.806042
    19  H    4.830024   5.929594   7.222659   7.592741   6.775790
    20  Cl   3.453017   4.843668   5.812210   5.719738   4.602663
    21  Cl   4.051414   4.538888   4.027251   2.732673   1.758924
    22  Cl   4.055921   2.738605   1.758860   2.735019   4.029309
                    6          7          8          9         10
     6  C    0.000000
     7  C    2.644543   0.000000
     8  C    3.816560   1.406346   0.000000
     9  C    5.065823   2.450712   1.395934   0.000000
    10  C    5.418120   2.834195   2.412673   1.391606   0.000000
    11  C    4.679944   2.448962   2.775858   2.407638   1.394016
    12  C    3.289519   1.429946   2.425971   2.809201   2.436928
    13  H    3.384669   2.652612   2.282642   3.555702   4.695247
    14  H    3.401492   5.453778   6.070289   7.466219   8.245887
    15  H    1.059648   2.888440   4.238956   5.322173   5.401457
    16  H    3.998445   2.142737   1.071645   2.131821   3.376274
    17  H    5.955243   3.416181   2.144328   1.072464   2.140602
    18  H    6.481055   3.906569   3.386493   2.142438   1.072375
    19  H    5.375406   3.418692   3.848208   3.376326   2.135780
    20  Cl   3.294916   2.845794   4.102706   4.560458   3.990773
    21  Cl   2.737669   5.380471   6.524136   7.801033   8.117591
    22  Cl   4.549770   5.233308   5.138575   6.404428   7.550275
                   11         12         13         14         15
    11  C    0.000000
    12  C    1.402387   0.000000
    13  H    4.893137   4.081232   0.000000
    14  H    7.826084   6.511732   4.272044   0.000000
    15  H    4.430808   3.042465   4.276153   4.260883   0.000000
    16  H    3.847405   3.400382   1.463142   5.633201   4.646438
    17  H    3.381168   3.881659   3.904270   8.058821   6.304619
    18  H    2.143527   3.405474   5.649889   9.309174   6.421965
    19  H    1.072356   2.142421   5.942690   8.651298   4.943303
    20  Cl   2.662185   1.758795   5.347614   6.691485   2.520853
    21  Cl   7.250888   5.850871   5.610434   2.872042   2.844026
    22  Cl   7.633631   6.619670   2.860134   2.875315   5.609089
                   16         17         18         19         20
    16  H    0.000000
    17  H    2.451496   0.000000
    18  H    4.262789   2.469107   0.000000
    19  H    4.919731   4.263893   2.459210   0.000000
    20  Cl   4.980630   5.632178   4.802926   2.733455   0.000000
    21  Cl   6.560880   8.668391   9.168327   7.786206   5.260471
    22  Cl   4.280177   6.637327   8.509677   8.644827   7.496006
                   21         22
    21  Cl   0.000000
    22  Cl   5.457040   0.000000
 Stoichiometry    C12H7Cl3
 Framework group  C1[X(C12H7Cl3)]
 Deg. of freedom    60
 Full point group                 C1      NOp   1
 Largest Abelian subgroup         C1      NOp   1
 Largest concise Abelian subgroup C1      NOp   1
                         Standard orientation:                         
 ---------------------------------------------------------------------
 Center     Atomic      Atomic             Coordinates (Angstroms)
 Number     Number       Type             X           Y           Z
 ---------------------------------------------------------------------
      1          6           0       -0.027790   -0.168072    0.000002
      2          6           0       -0.845234   -1.311252    0.000001
      3          6           0       -2.239022   -1.203761   -0.000001
      4          6           0       -2.846585    0.051526   -0.000002
      5          6           0       -2.047523    1.195288    0.000001
      6          6           0       -0.650935    1.091294    0.000003
      7          6           0        1.508117   -0.435828    0.000003
      8          6           0        1.836538   -1.803289    0.000004
      9          6           0        3.160517   -2.245680    0.000004
     10          6           0        4.200524   -1.321043    0.000002
     11          6           0        3.909941    0.042350   -0.000000
     12          6           0        2.585750    0.504094   -0.000000
     13          1           0       -0.394982   -2.283683   -0.000001
     14          1           0       -3.915580    0.136182   -0.000004
     15          1           0       -0.074510    1.980445    0.000004
     16          1           0        1.047537   -2.528479    0.000003
     17          1           0        3.375674   -3.296340    0.000005
     18          1           0        5.219757   -1.654437    0.000000
     19          1           0        4.713762    0.752154   -0.000005
     20         17           0        2.431228    2.256088   -0.000006
     21         17           0       -2.802702    2.783846    0.000004
     22         17           0       -3.230729   -2.656381   -0.000003
 ---------------------------------------------------------------------
 Rotational constants (GHZ):           0.5491345           0.2793911           0.1851763
 Standard basis: 6-311+G(d,p) (5D, 7F)
 There are   411 symmetry adapted cartesian basis functions of A   symmetry.
 There are   396 symmetry adapted basis functions of A   symmetry.
   396 basis functions,   647 primitive gaussians,   411 cartesian basis functions
    65 alpha electrons       65 beta electrons
       nuclear repulsion energy      1174.4002377300 Hartrees.
 NAtoms=   22 NActive=   22 NUniq=   22 SFac= 1.00D+00 NAtFMM=   60 NAOKFM=F Big=F
 Integral buffers will be    131072 words long.
 Raffenetti 2 integral format.
 Two-electron integral symmetry is turned on.
 One-electron integrals computed using PRISM.
 NBasis=   396 RedAO= T EigKep=  1.71D-06  NBF=   396
 NBsUse=   391 1.00D-06 EigRej=  7.97D-07 NBFU=   391
 Initial guess from the checkpoint file:  "/scratch/pkc/Gau-21235.chk"
 B after Tr=    -0.000000    0.000000   -0.000000
         Rot=    0.999953   -0.000000    0.000000    0.009704 Ang=   1.11 deg.
 ExpMin= 4.38D-02 ExpMax= 1.06D+05 ExpMxC= 3.62D+03 IAcc=3 IRadAn=         5 AccDes= 0.00D+00
 Harris functional with IExCor=  402 and IRadAn=       5 diagonalized for initial guess.
 HarFok:  IExCor=  402 AccDes= 0.00D+00 IRadAn=         5 IDoV= 1 UseB2=F ITyADJ=14
 ICtDFT=  3500011 ScaDFX=  1.000000  1.000000  1.000000  1.000000
 FoFCou: FMM=F IPFlag=           0 FMFlag=      100000 FMFlg1=           0
         NFxFlg=           0 DoJE=T BraDBF=F KetDBF=T FulRan=T
         wScrn=  0.000000 ICntrl=       500 IOpCl=  0 I1Cent=   200000004 NGrid=           0
         NMat0=    1 NMatS0=      1 NMatT0=    0 NMatD0=    1 NMtDS0=    0 NMtDT0=    0
 Petite list used in FoFCou.
 Requested convergence on RMS density matrix=1.00D-08 within  32 cycles.
 Requested convergence on MAX density matrix=1.00D-06.
 Requested convergence on             energy=1.00D-06.
 No special actions if energy rises.
 SCF Done:  E(RB3LYP) =  -1842.26330911     A.U. after   16 cycles
            NFock= 16  Conv=0.52D-08     -V/T= 2.0030
 QCSCF skips out because SCF is already converged.
 Calling FoFJK, ICntrl=      2127 FMM=F ISym2X=0 I1Cent= 0 IOpClX= 0 NMat=1 NMatS=1 NMatT=0.
 ***** Axes restored to original set *****
 -------------------------------------------------------------------
 Center     Atomic                   Forces (Hartrees/Bohr)
 Number     Number              X              Y              Z
 -------------------------------------------------------------------
      1        6          -0.010090250   -0.016592620    0.000207965
      2        6           0.007620011    0.017061416    0.000693972
      3        6          -0.014699191   -0.004562029    0.003986038
      4        6          -0.000616958    0.001743900    0.000530579
      5        6           0.002913480   -0.013986997   -0.003586702
      6        6           0.009485102    0.000134949   -0.003099526
      7        6           0.007957661    0.026783203    0.002408583
      8        6          -0.022692452   -0.017122214    0.004260530
      9        6          -0.002018225    0.010877030    0.002707656
     10        6           0.003398284    0.010965614    0.000939896
     11        6           0.010052611    0.001255990   -0.003075868
     12        6           0.014490659   -0.011110991   -0.006860869
     13        1           0.009497644    0.008542328   -0.001524753
     14        1           0.003968662    0.005590977   -0.000257450
     15        1          -0.012675180    0.001546646    0.004466336
     16        1          -0.003238177   -0.010284253   -0.000864794
     17        1           0.004941492   -0.005618027   -0.002683090
     18        1          -0.004230557   -0.006648528    0.000145080
     19        1          -0.006972005    0.000646744    0.002418360
     20       17           0.004585130    0.003697587   -0.000816189
     21       17           0.001469203   -0.003500133   -0.001141349
     22       17          -0.003146945    0.000579408    0.001145594
 -------------------------------------------------------------------
 Cartesian Forces:  Max     0.026783203 RMS     0.008186245

 GradGradGradGradGradGradGradGradGradGradGradGradGradGradGradGradGradGrad
 Berny optimization.
 Using GEDIIS/GDIIS optimizer.
 FormGI is forming the generalized inverse of G from B-inverse, IUseBI=4.
 Internal  Forces:  Max     0.063683616 RMS     0.011523340
 Search for a local minimum.
 Step number   2 out of a maximum of  121
 All quantities printed in internal units (Hartrees-Bohrs-Radians)
 Mixed Optimization -- RFO/linear search
 Update second derivatives using D2CorX and points    1    2
 DE= -3.88D-02 DEPred=-1.47D-01 R= 2.64D-01
 Trust test= 2.64D-01 RLast= 3.00D-01 DXMaxT set to 3.00D-01
 ITU=  0  0
 Use linear search instead of GDIIS.
     Eigenvalues ---    0.00237   0.01478   0.01485   0.02070   0.02070
     Eigenvalues ---    0.02070   0.02070   0.02070   0.02070   0.02070
     Eigenvalues ---    0.02070   0.02070   0.02070   0.02070   0.02070
     Eigenvalues ---    0.02070   0.02070   0.02070   0.02070   0.15969
     Eigenvalues ---    0.16000   0.16000   0.16000   0.16000   0.16000
     Eigenvalues ---    0.16034   0.22000   0.22524   0.23378   0.23483
     Eigenvalues ---    0.23506   0.24334   0.24887   0.25000   0.25000
     Eigenvalues ---    0.25000   0.28453   0.29536   0.29539   0.29539
     Eigenvalues ---    0.37080   0.37188   0.37230   0.37230   0.37230
     Eigenvalues ---    0.37230   0.37230   0.40370   0.41264   0.41455
     Eigenvalues ---    0.41612   0.45044   0.45327   0.45389   0.45389
     Eigenvalues ---    0.45389   0.45389   0.45389   0.45389   2.08821
 RFO step:  Lambda=-1.38246763D-02 EMin= 2.36824243D-03
 Quartic linear search produced a step of -0.32477.
 Iteration  1 RMS(Cart)=  0.15034688 RMS(Int)=  0.00469220
 Iteration  2 RMS(Cart)=  0.00853165 RMS(Int)=  0.00005359
 Iteration  3 RMS(Cart)=  0.00002949 RMS(Int)=  0.00005287
 Iteration  4 RMS(Cart)=  0.00000000 RMS(Int)=  0.00005287
 Variable       Old X    -DE/DX   Delta X   Delta X   Delta X     New X
                                 (Linear)    (Quad)   (Total)
    R1        2.65577   0.00946  -0.00244   0.02080   0.01837   2.67414
    R2        2.65526  -0.00238  -0.00227   0.00280   0.00057   2.65582
    R3        2.94622  -0.00622  -0.01170   0.01521   0.00350   2.94972
    R4        2.64170  -0.00867   0.00213  -0.01774  -0.01563   2.62607
    R5        2.02505  -0.00377  -0.00099  -0.00400  -0.00499   2.02006
    R6        2.63539  -0.00772   0.00418  -0.02248  -0.01834   2.61706
    R7        3.32376  -0.00339   0.00070  -0.00915  -0.00845   3.31531
    R8        2.63662  -0.01065   0.00378  -0.02611  -0.02235   2.61427
    R9        2.02643   0.00686  -0.00144   0.01573   0.01430   2.04073
   R10        2.64648  -0.00871   0.00058  -0.01459  -0.01399   2.63248
   R11        3.32388  -0.00396   0.00066  -0.01030  -0.00964   3.31424
   R12        2.00244   0.01353   0.00635   0.00705   0.01341   2.01585
   R13        2.65761   0.00928  -0.00304   0.02156   0.01861   2.67622
   R14        2.70221  -0.01775  -0.01752   0.02076   0.00337   2.70557
   R15        2.63793  -0.00526   0.00335  -0.01596  -0.01265   2.62529
   R16        2.02512  -0.00417  -0.00101  -0.00465  -0.00566   2.01945
   R17        2.62975  -0.00432   0.00601  -0.02181  -0.01592   2.61383
   R18        2.02666   0.00791  -0.00151   0.01777   0.01626   2.04292
   R19        2.63431  -0.00916   0.00453  -0.02542  -0.02098   2.61333
   R20        2.02650   0.00778  -0.00146   0.01739   0.01593   2.04243
   R21        2.65013  -0.00741  -0.00061  -0.00969  -0.01025   2.63987
   R22        2.02646   0.00719  -0.00145   0.01634   0.01489   2.04135
   R23        3.32364  -0.00062   0.00074  -0.00322  -0.00248   3.32116
    A1        2.06134  -0.01141   0.01073  -0.05343  -0.04264   2.01870
    A2        2.01896   0.05540   0.02450   0.08113   0.10560   2.12456
    A3        2.20288  -0.04400  -0.03523  -0.02770  -0.06296   2.13992
    A4        2.11459  -0.00064  -0.00656   0.01625   0.00968   2.12427
    A5        2.08720   0.01278   0.00234   0.04223   0.04457   2.13177
    A6        2.08139  -0.01213   0.00422  -0.05848  -0.05425   2.02714
    A7        2.09853   0.00925  -0.00134   0.02774   0.02634   2.12487
    A8        2.09285  -0.00418   0.00050  -0.01232  -0.01179   2.08106
    A9        2.09180  -0.00507   0.00084  -0.01543  -0.01455   2.07725
   A10        2.08102  -0.00917   0.00434  -0.03809  -0.03379   2.04723
   A11        2.10059   0.00472  -0.00201   0.01922   0.01723   2.11783
   A12        2.10157   0.00445  -0.00233   0.01887   0.01656   2.11813
   A13        2.10627   0.00696  -0.00386   0.02548   0.02163   2.12790
   A14        2.08803  -0.00365   0.00207  -0.01350  -0.01143   2.07659
   A15        2.08889  -0.00332   0.00179  -0.01198  -0.01020   2.07869
   A16        2.10461   0.00501  -0.00332   0.02204   0.01878   2.12339
   A17        2.10694  -0.00254  -0.00407   0.00114  -0.00296   2.10398
   A18        2.07164  -0.00247   0.00739  -0.02318  -0.01582   2.05582
   A19        1.97910   0.06368   0.03745   0.07196   0.10929   2.08839
   A20        2.25175  -0.04695  -0.05110   0.00453  -0.04669   2.20506
   A21        2.05234  -0.01674   0.01366  -0.07649  -0.06261   1.98973
   A22        2.12897   0.00552  -0.01123   0.04403   0.03284   2.16182
   A23        2.07837   0.00734   0.00520   0.01808   0.02326   2.10164
   A24        2.07584  -0.01287   0.00603  -0.06211  -0.05611   2.01973
   A25        2.09238   0.00113   0.00066   0.00401   0.00449   2.09687
   A26        2.09526  -0.00133  -0.00028  -0.00507  -0.00527   2.08999
   A27        2.09555   0.00020  -0.00037   0.00106   0.00077   2.09632
   A28        2.08755  -0.00432   0.00222  -0.01693  -0.01492   2.07263
   A29        2.09872   0.00346  -0.00140   0.01414   0.01285   2.11157
   A30        2.09692   0.00086  -0.00082   0.00278   0.00207   2.09899
   A31        2.11630  -0.00173  -0.00711   0.01038   0.00321   2.11951
   A32        2.08417   0.00267   0.00332   0.00231   0.00565   2.08982
   A33        2.08271  -0.00093   0.00379  -0.01268  -0.00886   2.07385
   A34        2.08883   0.01615   0.00181   0.03501   0.03698   2.12581
   A35        2.20007  -0.01790  -0.03432   0.03867   0.00426   2.20433
   A36        1.99428   0.00175   0.03251  -0.07367  -0.04124   1.95304
    D1        0.00000  -0.00000  -0.00000  -0.00000  -0.00000   0.00000
    D2        3.14159  -0.00000  -0.00000  -0.00000  -0.00000   3.14159
    D3       -3.14159  -0.00000   0.00000  -0.00000  -0.00000  -3.14159
    D4       -0.00000  -0.00000   0.00000   0.00000   0.00000  -0.00000
    D5       -0.00000   0.00000   0.00000   0.00000   0.00000  -0.00000
    D6        3.14159   0.00000   0.00000   0.00000   0.00000   3.14159
    D7        3.14159  -0.00000  -0.00000   0.00000   0.00000   3.14159
    D8        0.00000  -0.00000   0.00000  -0.00000  -0.00000  -0.00000
    D9       -0.00000  -0.00000   0.00000  -0.00000  -0.00000  -0.00000
   D10        3.14159  -0.00000   0.00000  -0.00000  -0.00000   3.14159
   D11        3.14159  -0.00000   0.00000  -0.00000  -0.00000   3.14159
   D12       -0.00000   0.00000   0.00000   0.00000   0.00000  -0.00000
   D13        0.00000  -0.00000   0.00000  -0.00000  -0.00000   0.00000
   D14        3.14159   0.00000   0.00000   0.00000   0.00000   3.14159
   D15       -3.14159  -0.00000   0.00000  -0.00000  -0.00000  -3.14159
   D16        0.00000  -0.00000   0.00000  -0.00000  -0.00000   0.00000
   D17       -0.00000   0.00000  -0.00000   0.00000   0.00000  -0.00000
   D18        3.14159   0.00000  -0.00000   0.00000   0.00000   3.14159
   D19        3.14159   0.00000   0.00000   0.00000   0.00000   3.14159
   D20        0.00000  -0.00000   0.00000  -0.00000  -0.00000   0.00000
   D21        0.00000  -0.00000  -0.00000  -0.00000  -0.00000   0.00000
   D22       -3.14159  -0.00000  -0.00000  -0.00000  -0.00000  -3.14159
   D23       -3.14159  -0.00000   0.00000  -0.00000  -0.00000  -3.14159
   D24        0.00000  -0.00000  -0.00000  -0.00000  -0.00000   0.00000
   D25       -0.00000   0.00000  -0.00000   0.00000   0.00000  -0.00000
   D26        3.14159   0.00000  -0.00000   0.00000   0.00000   3.14159
   D27        3.14159   0.00000   0.00000   0.00000   0.00000   3.14159
   D28       -0.00000   0.00000  -0.00000   0.00000   0.00000  -0.00000
   D29        3.14159  -0.00000  -0.00000   0.00000   0.00000  -3.14159
   D30        0.00000  -0.00000  -0.00000  -0.00000  -0.00000   0.00000
   D31        0.00000  -0.00000  -0.00000  -0.00000  -0.00000   0.00000
   D32       -3.14159  -0.00000   0.00000  -0.00000  -0.00000  -3.14159
   D33       -3.14159  -0.00000  -0.00000  -0.00000  -0.00000   3.14159
   D34        0.00000  -0.00000   0.00000  -0.00000  -0.00000  -0.00000
   D35       -0.00000   0.00000   0.00000   0.00000   0.00000  -0.00000
   D36        3.14159   0.00000   0.00000   0.00000   0.00000   3.14159
   D37       -0.00000  -0.00000   0.00000   0.00000   0.00000  -0.00000
   D38        3.14159  -0.00000   0.00000  -0.00000  -0.00000   3.14159
   D39        3.14159   0.00000  -0.00000   0.00000   0.00000   3.14159
   D40       -0.00000   0.00000  -0.00000   0.00000   0.00000  -0.00000
   D41       -0.00000   0.00000   0.00000   0.00000   0.00000   0.00000
   D42       -3.14159  -0.00000   0.00000  -0.00000  -0.00000  -3.14159
   D43        3.14159   0.00000  -0.00000   0.00000   0.00000  -3.14159
   D44        0.00000  -0.00000   0.00000  -0.00000  -0.00000   0.00000
   D45        0.00000   0.00000  -0.00000  -0.00000  -0.00000   0.00000
   D46       -3.14159  -0.00000  -0.00000  -0.00000  -0.00000  -3.14159
   D47        3.14159   0.00000  -0.00000   0.00000   0.00000   3.14159
   D48        0.00000  -0.00000  -0.00000  -0.00000  -0.00000   0.00000
   D49        0.00000  -0.00000  -0.00000  -0.00000  -0.00000   0.00000
   D50       -3.14159  -0.00000  -0.00000  -0.00000  -0.00000  -3.14159
   D51        3.14159   0.00000  -0.00000   0.00000   0.00000   3.14159
   D52       -0.00000   0.00000  -0.00000   0.00000   0.00000  -0.00000
         Item               Value     Threshold  Converged?
 Maximum Force            0.063684     0.000450     NO 
 RMS     Force            0.011523     0.000300     NO 
 Maximum Displacement     0.565445     0.001800     NO 
 RMS     Displacement     0.153148     0.001200     NO 
 Predicted change in Energy=-9.201466D-03
 GradGradGradGradGradGradGradGradGradGradGradGradGradGradGradGradGradGrad

                          Input orientation:                          
 ---------------------------------------------------------------------
 Center     Atomic      Atomic             Coordinates (Angstroms)
 Number     Number       Type             X           Y           Z
 ---------------------------------------------------------------------
      1          6           0       -0.293805   -0.001652    0.011299
      2          6           0        1.051828    0.035694   -0.425012
      3          6           0        1.781276    1.218366   -0.443216
      4          6           0        1.229322    2.421274   -0.035455
      5          6           0       -0.085535    2.402720    0.394244
      6          6           0       -0.835252    1.228919    0.420792
      7          6           0       -1.113517   -1.329860    0.031909
      8          6           0       -0.505189   -2.535411   -0.394924
      9          6           0       -1.151929   -3.764802   -0.412743
     10          6           0       -2.467702   -3.863494    0.002214
     11          6           0       -3.117523   -2.720531    0.430962
     12          6           0       -2.473951   -1.480820    0.451763
     13          1           0        1.565950   -0.840048   -0.758861
     14          1           0        1.802206    3.336544   -0.052299
     15          1           0       -1.843270    1.290278    0.764411
     16          1           0        0.509514   -2.540247   -0.730133
     17          1           0       -0.622898   -4.644339   -0.752223
     18          1           0       -2.983980   -4.812983   -0.006018
     19          1           0       -4.145223   -2.779359    0.758500
     20         17           0       -3.529271   -0.204132    1.039222
     21         17           0       -0.828713    3.901567    0.920581
     22         17           0        3.445760    1.190047   -0.996905
[...]
     18          1           0        5.373073   -0.837556    0.710420
     19          1           0        4.483672    0.842773   -0.882940
     20         17           0        1.879691    1.590210   -1.611705
     21         17           0       -2.757451    2.608780    0.831538
     22         17           0       -3.082209   -2.582265   -0.705294
 ---------------------------------------------------------------------
 Rotational constants (GHZ):           0.5640227           0.2679653           0.2114434

 **********************************************************************

            Population analysis using the SCF Density.

 **********************************************************************

 Orbital symmetries:
       Occupied  (A) (A) (A) (A) (A) (A) (A) (A) (A) (A) (A) (A)
                 (A) (A) (A) (A) (A) (A) (A) (A) (A) (A) (A) (A)
                 (A) (A) (A) (A) (A) (A) (A) (A) (A) (A) (A) (A)
                 (A) (A) (A) (A) (A) (A) (A) (A) (A) (A) (A) (A)
                 (A) (A) (A) (A) (A) (A) (A) (A) (A) (A) (A) (A)
                 (A) (A) (A) (A) (A)
       Virtual   (A) (A) (A) (A) (A) (A) (A) (A) (A) (A) (A) (A)
                 (A) (A) (A) (A) (A) (A) (A) (A) (A) (A) (A) (A)
                 (A) (A) (A) (A) (A) (A) (A) (A) (A) (A) (A) (A)
                 (A) (A) (A) (A) (A) (A) (A) (A) (A) (A) (A) (A)
                 (A) (A) (A) (A) (A) (A) (A) (A) (A) (A) (A) (A)
                 (A) (A) (A) (A) (A) (A) (A) (A) (A) (A) (A) (A)
                 (A) (A) (A) (A) (A) (A) (A) (A) (A) (A) (A) (A)
                 (A) (A) (A) (A) (A) (A) (A) (A) (A) (A) (A) (A)
                 (A) (A) (A) (A) (A) (A) (A) (A) (A) (A) (A) (A)
                 (A) (A) (A) (A) (A) (A) (A) (A) (A) (A) (A) (A)
                 (A) (A) (A) (A) (A) (A) (A) (A) (A) (A) (A) (A)
                 (A) (A) (A) (A) (A) (A) (A) (A) (A) (A) (A) (A)
                 (A) (A) (A) (A) (A) (A) (A) (A) (A) (A) (A) (A)
                 (A) (A) (A) (A) (A) (A) (A) (A) (A) (A) (A) (A)
                 (A) (A) (A) (A) (A) (A) (A) (A) (A) (A) (A) (A)
                 (A) (A) (A) (A) (A) (A) (A) (A) (A) (A) (A) (A)
                 (A) (A) (A) (A) (A) (A) (A) (A) (A) (A) (A) (A)
                 (A) (A) (A) (A) (A) (A) (A) (A) (A) (A) (A) (A)
                 (A) (A) (A) (A) (A) (A) (A) (A) (A) (A) (A) (A)
                 (A) (A) (A) (A) (A) (A) (A) (A) (A) (A) (A) (A)
                 (A) (A) (A) (A) (A) (A) (A) (A) (A) (A) (A) (A)
                 (A) (A) (A) (A) (A) (A) (A) (A) (A) (A) (A) (A)
                 (A) (A) (A) (A) (A) (A) (A) (A) (A) (A) (A) (A)
                 (A) (A) (A) (A) (A) (A) (A) (A) (A) (A) (A) (A)
                 (A) (A) (A) (A) (A) (A) (A) (A) (A) (A) (A) (A)
                 (A) (A) (A) (A) (A) (A) (A) (A) (A) (A) (A) (A)
                 (A) (A) (A) (A) (A) (A) (A) (A) (A) (A) (A) (A)
                 (A) (A) (A) (A) (A) (A)
 The electronic state is 1-A.
 Alpha  occ. eigenvalues -- -101.56581-101.56468-101.56278 -10.25830 -10.25777
 Alpha  occ. eigenvalues --  -10.25550 -10.21960 -10.21783 -10.20786 -10.20398
 Alpha  occ. eigenvalues --  -10.20308 -10.20210 -10.20173 -10.20047 -10.19754
 Alpha  occ. eigenvalues --   -9.48036  -9.47925  -9.47753  -7.24502  -7.24391
 Alpha  occ. eigenvalues --   -7.24213  -7.23517  -7.23482  -7.23405  -7.23369
 Alpha  occ. eigenvalues --   -7.23241  -7.23191  -0.92549  -0.90969  -0.88527
 Alpha  occ. eigenvalues --   -0.85548  -0.84586  -0.79630  -0.76069  -0.75145
 Alpha  occ. eigenvalues --   -0.74757  -0.65967  -0.63305  -0.61658  -0.60324
 Alpha  occ. eigenvalues --   -0.54767  -0.52865  -0.51306  -0.49131  -0.48840
 Alpha  occ. eigenvalues --   -0.46860  -0.45319  -0.45254  -0.44804  -0.42643
 Alpha  occ. eigenvalues --   -0.41239  -0.40894  -0.39311  -0.38079  -0.37907
 Alpha  occ. eigenvalues --   -0.37434  -0.34961  -0.33757  -0.33244  -0.32572
 Alpha  occ. eigenvalues --   -0.32383  -0.28966  -0.27123  -0.26335  -0.25948
 Alpha virt. eigenvalues --   -0.05825  -0.04482  -0.03560  -0.02398  -0.01174
 Alpha virt. eigenvalues --   -0.00691   0.00084   0.01114   0.01784   0.01928
 Alpha virt. eigenvalues --    0.02639   0.02865   0.03873   0.04321   0.04914
 Alpha virt. eigenvalues --    0.05102   0.05416   0.06193   0.07219   0.07494
 Alpha virt. eigenvalues --    0.08039   0.08664   0.08978   0.09583   0.09886
 Alpha virt. eigenvalues --    0.10020   0.10285   0.11056   0.11235   0.11744
 Alpha virt. eigenvalues --    0.12231   0.12554   0.12877   0.12894   0.12971
 Alpha virt. eigenvalues --    0.13511   0.14163   0.15015   0.15374   0.15853
 Alpha virt. eigenvalues --    0.16123   0.16515   0.17110   0.17471   0.17576
 Alpha virt. eigenvalues --    0.17926   0.18171   0.18807   0.19576   0.19774
 Alpha virt. eigenvalues --    0.19878   0.20591   0.20726   0.20754   0.21295
 Alpha virt. eigenvalues --    0.21336   0.21928   0.22995   0.23332   0.23534
 Alpha virt. eigenvalues --    0.23774   0.24009   0.24469   0.24608   0.26207
 Alpha virt. eigenvalues --    0.26430   0.26956   0.27385   0.27843   0.27935
 Alpha virt. eigenvalues --    0.27982   0.28487   0.28618   0.28880   0.29460
 Alpha virt. eigenvalues --    0.30263   0.30849   0.31099   0.31490   0.32688
 Alpha virt. eigenvalues --    0.33400   0.34545   0.34864   0.35614   0.42421
 Alpha virt. eigenvalues --    0.42878   0.43305   0.44705   0.46096   0.46446
 Alpha virt. eigenvalues --    0.46634   0.47209   0.47725   0.48293   0.49493
 Alpha virt. eigenvalues --    0.50205   0.51046   0.52227   0.52988   0.54725
 Alpha virt. eigenvalues --    0.55647   0.55889   0.56425   0.56653   0.57766
 Alpha virt. eigenvalues --    0.58099   0.58419   0.59500   0.60427   0.61394
 Alpha virt. eigenvalues --    0.62053   0.62521   0.62963   0.63423   0.65291
 Alpha virt. eigenvalues --    0.65492   0.67222   0.67515   0.68291   0.68443
 Alpha virt. eigenvalues --    0.69204   0.69523   0.70286   0.70723   0.71395
 Alpha virt. eigenvalues --    0.72093   0.72376   0.73315   0.75105   0.78251
 Alpha virt. eigenvalues --    0.81065   0.81647   0.82463   0.82954   0.83616
 Alpha virt. eigenvalues --    0.84324   0.84836   0.85177   0.85706   0.86066
 Alpha virt. eigenvalues --    0.86447   0.86634   0.86745   0.87569   0.88884
 Alpha virt. eigenvalues --    0.89200   0.89568   0.90642   0.91197   0.92622
 Alpha virt. eigenvalues --    0.93576   0.94925   0.95153   0.96045   0.96373
 Alpha virt. eigenvalues --    0.96934   0.98291   0.99237   1.00122   1.01504
 Alpha virt. eigenvalues --    1.01774   1.03815   1.04988   1.07456   1.07743
 Alpha virt. eigenvalues --    1.09718   1.10161   1.12049   1.13048   1.16518
 Alpha virt. eigenvalues --    1.18343   1.21677   1.23359   1.24101   1.24408
 Alpha virt. eigenvalues --    1.26638   1.28421   1.30174   1.31574   1.33194
 Alpha virt. eigenvalues --    1.36197   1.40346   1.43704   1.47538   1.49057
 Alpha virt. eigenvalues --    1.50587   1.51522   1.53004   1.54953   1.55655
 Alpha virt. eigenvalues --    1.56214   1.57272   1.58267   1.59884   1.60598
 Alpha virt. eigenvalues --    1.62936   1.64375   1.65126   1.67406   1.68888
 Alpha virt. eigenvalues --    1.69455   1.71730   1.73036   1.75676   1.79126
 Alpha virt. eigenvalues --    1.80662   1.83967   1.86169   1.87472   1.89570
 Alpha virt. eigenvalues --    1.89946   1.90391   1.92273   1.93002   1.94043
 Alpha virt. eigenvalues --    1.94494   1.95045   1.95884   1.96856   1.98711
 Alpha virt. eigenvalues --    2.00552   2.02151   2.03257   2.04264   2.05504
 Alpha virt. eigenvalues --    2.08373   2.09985   2.14092   2.17555   2.22003
 Alpha virt. eigenvalues --    2.25868   2.26618   2.27611   2.28768   2.30477
 Alpha virt. eigenvalues --    2.31514   2.32477   2.34847   2.38270   2.38871
 Alpha virt. eigenvalues --    2.41160   2.41698   2.43963   2.47494   2.49959
 Alpha virt. eigenvalues --    2.53096   2.54375   2.55445   2.56150   2.59040
 Alpha virt. eigenvalues --    2.60060   2.63721   2.66897   2.67279   2.68151
 Alpha virt. eigenvalues --    2.71235   2.72276   2.72678   2.72961   2.74710
 Alpha virt. eigenvalues --    2.75014   2.75752   2.77981   2.78678   2.78997
 Alpha virt. eigenvalues --    2.80468   2.81753   2.82514   2.84162   2.84547
 Alpha virt. eigenvalues --    2.85478   2.89233   2.92102   2.99013   2.99812
 Alpha virt. eigenvalues --    3.06922   3.08759   3.14061   3.14829   3.16934
 Alpha virt. eigenvalues --    3.20782   3.22263   3.22474   3.33465   3.35464
 Alpha virt. eigenvalues --    3.36531   3.39143   3.51113   3.52970   3.58333
 Alpha virt. eigenvalues --    3.60930   3.71736   3.74287   3.79797   3.86068
 Alpha virt. eigenvalues --    4.01944   4.06528   4.09487   4.10389   4.13287
 Alpha virt. eigenvalues --    4.39524   4.81319   4.83519   9.76355   9.79182
 Alpha virt. eigenvalues --    9.80822  23.45826  23.60634  23.86162  23.89594
 Alpha virt. eigenvalues --   23.91065  23.95510  24.01521  24.04589  24.05743
 Alpha virt. eigenvalues --   24.07104  24.13722  24.16710  25.82407  25.83274
 Alpha virt. eigenvalues --   25.89198  26.08405  26.18190  26.24712  26.59391
 Alpha virt. eigenvalues --   26.61588  26.70796 215.75289 215.78636 215.80640
          Condensed to atoms (all electrons):
               1          2          3          4          5          6
     1  C   23.199694  -0.515720  -3.268688  -0.366909  -1.954260  -5.462984
     2  C   -0.515720  45.931787  -6.255329 -10.640025   1.011278 -22.013904
     3  C   -3.268688  -6.255329  17.755095   0.715364  -3.531795   0.698254
     4  C   -0.366909 -10.640025   0.715364  25.577969   0.036969  -8.169599
     5  C   -1.954260   1.011278  -3.531795   0.036969  21.677593 -13.363839
     6  C   -5.462984 -22.013904   0.698254  -8.169599 -13.363839  58.352032
     7  C   -0.942201  -0.831876   0.118347  -0.873863   3.243841  -6.049742
     8  C   -4.607251   3.060626  -1.070873  -0.524846   1.633199  -4.395502
     9  C    0.759891   0.179022  -0.042944  -0.191663   0.040574   0.156529
    10  C   -0.622839   0.066879  -0.032104   0.024792  -0.015501  -0.086994
    11  C    3.157931  -0.090583   0.262863   0.155016  -0.937657   1.695635
    12  C   -2.726755  -3.478288   1.089890   0.780949  -1.979476   6.022320
    13  H    0.061290   0.085432   0.058839   0.052966  -0.006652   0.049592
    14  H    0.027546   0.046195   0.073610   0.080771   0.082599   0.034373
    15  H    0.075534   0.077328  -0.006667   0.035127   0.057389   0.114182
    16  H    0.028285   0.134747  -0.018516   0.003062  -0.022120  -0.028413
    17  H   -0.000502   0.000124  -0.000875   0.000049  -0.000202   0.000193
    18  H    0.003903  -0.000380  -0.000112  -0.000003   0.000041  -0.000968
    19  H    0.004743   0.001400  -0.000620   0.000130  -0.000368  -0.001616
    20  Cl  -1.032553  -0.190180  -0.018021  -0.195862   0.669816  -0.617385
    21  Cl  -0.237923   0.375818   0.007303   0.097464  -1.145189   0.154757
    22  Cl  -0.170923   0.186492  -1.183399   0.106182  -0.063507   0.496411
               7          8          9         10         11         12
     1  C   -0.942201  -4.607251   0.759891  -0.622839   3.157931  -2.726755
     2  C   -0.831876   3.060626   0.179022   0.066879  -0.090583  -3.478288
     3  C    0.118347  -1.070873  -0.042944  -0.032104   0.262863   1.089890
     4  C   -0.873863  -0.524846  -0.191663   0.024792   0.155016   0.780949
     5  C    3.243841   1.633199   0.040574  -0.015501  -0.937657  -1.979476
     6  C   -6.049742  -4.395502   0.156529  -0.086994   1.695635   6.022320
     7  C   30.525104  -2.234718  -0.245085  -2.982109  -5.129090 -10.816738
     8  C   -2.234718  36.355616  -4.328004   3.376746 -12.003494  -9.892764
     9  C   -0.245085  -4.328004   9.544931  -0.591741   3.050907  -2.385165
    10  C   -2.982109   3.376746  -0.591741   7.338784  -0.337763  -0.402547
    11  C   -5.129090 -12.003494   3.050907  -0.337763  23.105236  -5.046814
    12  C  -10.816738  -9.892764  -2.385165  -0.402547  -5.046814  35.208368
    13  H    0.009502   0.073515  -0.011670   0.006749  -0.007943  -0.013825
    14  H    0.009632   0.001419   0.000123  -0.000011  -0.000185  -0.003627
    15  H   -0.037614  -0.029692  -0.004241   0.001887   0.003150   0.073846
    16  H   -0.002398   0.320719  -0.063208  -0.010611   0.025146  -0.021932
    17  H   -0.013210   0.009437   0.350557   0.020857  -0.029613   0.012319
    18  H    0.029108  -0.060123   0.054874   0.338499   0.036253  -0.051189
    19  H    0.109728   0.028125  -0.034669  -0.052101   0.312176  -0.010984
    20  Cl   0.802666   1.030149  -0.104640   0.144824  -1.428078  -0.195024
    21  Cl  -0.011411  -0.021763   0.000587  -0.000083   0.019425   0.017229
    22  Cl  -0.074310   0.019890   0.029431  -0.004067   0.005949  -0.054743
              13         14         15         16         17         18
     1  C    0.061290   0.027546   0.075534   0.028285  -0.000502   0.003903
     2  C    0.085432   0.046195   0.077328   0.134747   0.000124  -0.000380
     3  C    0.058839   0.073610  -0.006667  -0.018516  -0.000875  -0.000112
     4  C    0.052966   0.080771   0.035127   0.003062   0.000049  -0.000003
     5  C   -0.006652   0.082599   0.057389  -0.022120  -0.000202   0.000041
     6  C    0.049592   0.034373   0.114182  -0.028413   0.000193  -0.000968
     7  C    0.009502   0.009632  -0.037614  -0.002398  -0.013210   0.029108
     8  C    0.073515   0.001419  -0.029692   0.320719   0.009437  -0.060123
     9  C   -0.011670   0.000123  -0.004241  -0.063208   0.350557   0.054874
    10  C    0.006749  -0.000011   0.001887  -0.010611   0.020857   0.338499
    11  C   -0.007943  -0.000185   0.003150   0.025146  -0.029613   0.036253
    12  C   -0.013825  -0.003627   0.073846  -0.021932   0.012319  -0.051189
    13  H    0.506791  -0.000226  -0.000129  -0.000545   0.000017  -0.000002
    14  H   -0.000226   0.494555  -0.000219   0.000000  -0.000000  -0.000000
    15  H   -0.000129  -0.000219   0.497434  -0.000034   0.000003   0.000000
    16  H   -0.000545   0.000000  -0.000034   0.528834  -0.007357  -0.000281
    17  H    0.000017  -0.000000   0.000003  -0.007357   0.530953  -0.007615
    18  H   -0.000002  -0.000000   0.000000  -0.000281  -0.007615   0.528844
    19  H    0.000004   0.000000   0.000005   0.000055  -0.000211  -0.007880
    20  Cl  -0.000795   0.000264  -0.004719  -0.002724   0.001229   0.000537
    21  Cl   0.000299  -0.008297  -0.008357  -0.000060   0.000000  -0.000001
    22  Cl  -0.011783  -0.009014   0.000284   0.000309  -0.000004   0.000000
              19         20         21         22
     1  C    0.004743  -1.032553  -0.237923  -0.170923
     2  C    0.001400  -0.190180   0.375818   0.186492
     3  C   -0.000620  -0.018021   0.007303  -1.183399
     4  C    0.000130  -0.195862   0.097464   0.106182
     5  C   -0.000368   0.669816  -1.145189  -0.063507
     6  C   -0.001616  -0.617385   0.154757   0.496411
     7  C    0.109728   0.802666  -0.011411  -0.074310
     8  C    0.028125   1.030149  -0.021763   0.019890
     9  C   -0.034669  -0.104640   0.000587   0.029431
    10  C   -0.052101   0.144824  -0.000083  -0.004067
    11  C    0.312176  -1.428078   0.019425   0.005949
    12  C   -0.010984  -0.195024   0.017229  -0.054743
    13  H    0.000004  -0.000795   0.000299  -0.011783
    14  H    0.000000   0.000264  -0.008297  -0.009014
    15  H    0.000005  -0.004719  -0.008357   0.000284
    16  H    0.000055  -0.002724  -0.000060   0.000309
    17  H   -0.000211   0.001229   0.000000  -0.000004
    18  H   -0.007880   0.000537  -0.000001   0.000000
    19  H    0.512018  -0.011122  -0.000020  -0.000003
    20  Cl  -0.011122  17.727308   0.007095  -0.003253
    21  Cl  -0.000020   0.007095  17.363494  -0.021199
    22  Cl  -0.000003  -0.003253  -0.021199  17.362417
 Mulliken charges:
               1
     1  C    0.590689
     2  C   -1.140844
     3  C    0.650378
     4  C   -0.704040
     5  C    0.567268
     6  C   -1.583331
     7  C    1.396438
     8  C   -0.740410
     9  C   -0.164397
    10  C   -0.181544
    11  C   -0.818465
    12  C   -0.125050
    13  H    0.148575
    14  H    0.170492
    15  H    0.155504
    16  H    0.137041
    17  H    0.133848
    18  H    0.136494
    19  H    0.151210
    20  Cl   0.420469
    21  Cl   0.410833
    22  Cl   0.388841
 Sum of Mulliken charges =  -0.00000
 Mulliken charges with hydrogens summed into heavy atoms:
               1
     1  C    0.590689
     2  C   -0.992269
     3  C    0.650378
     4  C   -0.533549
     5  C    0.567268
     6  C   -1.427826
     7  C    1.396438
     8  C   -0.603369
     9  C   -0.030549
    10  C   -0.045050
    11  C   -0.667255
    12  C   -0.125050
    20  Cl   0.420469
    21  Cl   0.410833
    22  Cl   0.388841
 Electronic spatial extent (au):  <R**2>=           4977.3689
 Charge=             -0.0000 electrons
 Dipole moment (field-independent basis, Debye):
    X=              2.4716    Y=             -1.1942    Z=              1.1789  Tot=              2.9874
 Quadrupole moment (field-independent basis, Debye-Ang):
   XX=            -98.7195   YY=           -109.4854   ZZ=           -109.8634
   XY=             -3.1890   XZ=              2.7920   YZ=             -2.7760
 Traceless Quadrupole moment (field-independent basis, Debye-Ang):
   XX=              7.3033   YY=             -3.4626   ZZ=             -3.8407
   XY=             -3.1890   XZ=              2.7920   YZ=             -2.7760
 Octapole moment (field-independent basis, Debye-Ang**2):
  XXX=             40.5287  YYY=              4.8452  ZZZ=             -6.5711  XYY=              5.8753
  XXY=             -3.0252  XXZ=              3.0724  XZZ=             -2.7116  YZZ=             -2.1708
  YYZ=              3.3005  XYZ=             -6.7814
 Hexadecapole moment (field-independent basis, Debye-Ang**3):
 XXXX=          -3986.3765 YYYY=          -1735.7981 ZZZZ=           -605.5882 XXXY=            -24.4852
 XXXZ=             13.5752 YYYX=              5.1387 YYYZ=             -0.3398 ZZZX=             -7.7678
 ZZZY=            -13.5119 XXYY=          -1039.9366 XXZZ=           -844.1867 YYZZ=           -376.2933
 XXYZ=            -40.1236 YYXZ=             17.2257 ZZXY=            -10.3592
 N-N= 1.188037512005D+03 E-N=-6.728086840567D+03  KE= 1.836983548344D+03
 1\1\GINC-DAMODAR\FOpt\RB3LYP\6-311+G(d,p)\C12H7Cl3\PKC\15-Mar-2022\0\\
 # opt b3lyp/6-311+g(d,p) scf=xqc\\Title Card Required\\0,1\C,-0.316925
 8859,-0.0379818034,0.0371237559\C,1.0748615651,-0.0643343624,0.1773787
 45\C,1.7913314044,1.1265652606,0.1317782248\C,1.1638262352,2.352603436
 ,-0.0547676956\C,-0.2207312189,2.3565468402,-0.1962173039\C,-0.9675536
 444,1.1863781356,-0.1526511942\C,-1.0792949614,-1.3183167215,0.0404168
 187\C,-0.7722447025,-2.2970328907,-0.9174754118\C,-1.4511071137,-3.509
 4378779,-0.968128429\C,-2.4628033453,-3.7736776187,-0.047991811\C,-2.7
 842651204,-2.8267270376,0.919082922\C,-2.0974980952,-1.6156474833,0.95
 8014569\H,1.5920305076,-1.0015609298,0.3353131323\H,1.7313252619,3.271
 9430601,-0.0889617915\H,-2.0414633154,1.2263171068,-0.2724405756\H,0.0
 053208601,-2.0827932768,-1.6417678639\H,-1.1941103025,-4.2407992321,-1
 .7252465211\H,-3.000974129,-4.713929137,-0.0761094376\H,-3.5585192686,
 -3.0218409448,1.6499608945\Cl,-2.5197233007,-0.4832653783,2.2390391775
 \Cl,-1.0413228071,3.8896328243,-0.4446329721\Cl,3.5379389968,1.0850886
 606,0.3163923277\\Version=EM64L-G16RevB.01\State=1-A\HF=-1842.2851907\
 RMSD=4.997e-09\RMSF=5.912e-06\Dipole=-0.2677652,-1.0582716,-0.4356282\
 Quadrupole=-2.2192464,4.8609959,-2.6417495,3.5293879,-0.5166031,2.4149
 222\PG=C01 [X(C12H7Cl3)]\\@


 THE DIFFERENCE BETWEEN A NOOSE AND A HALO IS ONLY 12 INCHES.
 Job cpu time:       0 days 13 hours 23 minutes 51.9 seconds.
 Elapsed time:       0 days  3 hours 50 minutes 55.8 seconds.
 File lengths (MBytes):  RWF=     98 Int=      0 D2E=      0 Chk=     15 Scr=      1
 Normal termination of Gaussian 16 at Tue Mar 15 05:08:54 2022.
