 Entering Gaussian System, Link 0=g16
 Input=2,3prime,4,4prime,5prime-Pentachlorobiphenyl.gjf
 Output=2,3prime,4,4prime,5prime-Pentachlorobiphenyl.log
 Initial command:
 /home/apps/g16/l1.exe "./Gau-153795.inp" -scrdir="./"
 Entering Link 1 = /home/apps/g16/l1.exe PID=    153814.
  
 Copyright (c) 1988-2017, Gaussian, Inc.  All Rights Reserved.
  
 This is part of the Gaussian(R) 16 program.  It is based on
 the Gaussian(R) 09 system (copyright 2009, Gaussian, Inc.),
 the Gaussian(R) 03 system (copyright 2003, Gaussian, Inc.),
 the Gaussian(R) 98 system (copyright 1998, Gaussian, Inc.),
 the Gaussian(R) 94 system (copyright 1995, Gaussian, Inc.),
 the Gaussian 92(TM) system (copyright 1992, Gaussian, Inc.),
 the Gaussian 90(TM) system (copyright 1990, Gaussian, Inc.),
 the Gaussian 88(TM) system (copyright 1988, Gaussian, Inc.),
 the Gaussian 86(TM) system (copyright 1986, Carnegie Mellon
 University), and the Gaussian 82(TM) system (copyright 1983,
 Carnegie Mellon University). Gaussian is a federally registered
 trademark of Gaussian, Inc.
  
 This software contains proprietary and confidential information,
 including trade secrets, belonging to Gaussian, Inc.
  
 This software is provided under written license and may be
 used, copied, transmitted, or stored only in accord with that
 written license.
  
 The following legend is applicable only to US Government
 contracts under FAR:
  
                    RESTRICTED RIGHTS LEGEND
  
 Use, reproduction and disclosure by the US Government is
 subject to restrictions as set forth in subparagraphs (a)
 and (c) of the Commercial Computer Software - Restricted
 Rights clause in FAR 52.227-19.
  
 Gaussian, Inc.
 340 Quinnipiac St., Bldg. 40, Wallingford CT 06492
  
  
 ---------------------------------------------------------------
 Warning -- This program may not be used in any manner that
 competes with the business of Gaussian, Inc. or will provide
 assistance to any competitor of Gaussian, Inc.  The licensee
 of this program is prohibited from giving any competitor of
 Gaussian, Inc. access to this program.  By using this program,
 the user acknowledges that Gaussian, Inc. is engaged in the
 business of creating and licensing software in the field of
 computational chemistry and represents and warrants to the
 licensee that it is not a competitor of Gaussian, Inc. and that
 it will not use this program in any manner prohibited above.
 ---------------------------------------------------------------
  

 Cite this work as:
 Gaussian 16, Revision B.01,
 M. J. Frisch, G. W. Trucks, H. B. Schlegel, G. E. Scuseria, 
 M. A. Robb, J. R. Cheeseman, G. Scalmani, V. Barone, 
 G. A. Petersson, H. Nakatsuji, X. Li, M. Caricato, A. V. Marenich, 
 J. Bloino, B. G. Janesko, R. Gomperts, B. Mennucci, H. P. Hratchian, 
 J. V. Ortiz, A. F. Izmaylov, J. L. Sonnenberg, D. Williams-Young, 
 F. Ding, F. Lipparini, F. Egidi, J. Goings, B. Peng, A. Petrone, 
 T. Henderson, D. Ranasinghe, V. G. Zakrzewski, J. Gao, N. Rega, 
 G. Zheng, W. Liang, M. Hada, M. Ehara, K. Toyota, R. Fukuda, 
 J. Hasegawa, M. Ishida, T. Nakajima, Y. Honda, O. Kitao, H. Nakai, 
 T. Vreven, K. Throssell, J. A. Montgomery, Jr., J. E. Peralta, 
 F. Ogliaro, M. J. Bearpark, J. J. Heyd, E. N. Brothers, K. N. Kudin, 
 V. N. Staroverov, T. A. Keith, R. Kobayashi, J. Normand, 
 K. Raghavachari, A. P. Rendell, J. C. Burant, S. S. Iyengar, 
 J. Tomasi, M. Cossi, J. M. Millam, M. Klene, C. Adamo, R. Cammi, 
 J. W. Ochterski, R. L. Martin, K. Morokuma, O. Farkas, 
 J. B. Foresman, and D. J. Fox, Gaussian, Inc., Wallingford CT, 2016.
 
 ******************************************
 Gaussian 16:  EM64L-G16RevB.01 20-Dec-2017
                 3-Apr-2022 
 ******************************************
 %mem=32GB
 %nprocshared=16
 Will use up to   16 processors via shared memory.
 --------------------------------
 # opt b3lyp/6-311+g(d,p) scf=xqc
 --------------------------------
 1/18=20,19=15,26=3,38=1/1,3;
 2/9=110,12=2,17=6,18=5,40=1/2;
 3/5=4,6=6,7=111,11=2,25=1,30=1,71=1,74=-5/1,2,3;
 4//1;
 5/5=2,8=3,13=1,38=5/2,8;
 6/7=2,8=2,9=2,10=2,28=1/1;
 7//1,2,3,16;
 1/18=20,19=15,26=3/3(2);
 2/9=110/2;
 99//99;
 2/9=110/2;
 3/5=4,6=6,7=111,11=2,25=1,30=1,71=1,74=-5/1,2,3;
 4/5=5,16=3,69=1/1;
 5/5=2,8=3,13=1,38=5/2,8;
 7//1,2,3,16;
 1/18=20,19=15,26=3/3(-5);
 2/9=110/2;
 6/7=2,8=2,9=2,10=2,19=2,28=1/1;
 99/9=1/99;
 -------------------
 Title Card Required
 -------------------
 Symbolic Z-matrix:
 Charge =  0 Multiplicity = 1
 C                    -0.39193  -0.35915  -0.01583 
 C                     0.94045  -0.32926  -0.44918 
 C                     1.64834   0.88019  -0.45525 
 C                     1.02386   2.05975  -0.02798 
 C                    -0.30853   2.02987   0.40537 
 C                    -1.01642   0.82042   0.41144 
 C                    -1.16984  -1.68821  -0.00916 
 C                    -0.54535  -2.86778  -0.43643 
 C                    -1.25324  -4.07723  -0.43036 
 C                    -2.58562  -4.10712   0.00299 
 C                    -3.21011  -2.92755   0.43027 
 C                    -2.50222  -1.7181    0.42419 
 H                     1.41726  -1.22989  -0.77541 
 H                    -2.03372   0.7976    0.74231 
 H                     0.47195  -2.84496  -0.7673 
 H                    -0.77643  -4.97786  -0.75659 
 H                    -4.22741  -2.95037   0.76114 
 Cl                   -3.2865   -0.2367    0.9608 
 Cl                   -1.09281   3.51127   0.94197 
 Cl                   -3.47465  -5.62605   0.01062 
 Cl                    1.91289   3.57869  -0.0356 
 Cl                    3.32166   0.91772  -0.99949 
 

 GradGradGradGradGradGradGradGradGradGradGradGradGradGradGradGradGradGrad
 Berny optimization.
 Initialization pass.
                           ----------------------------
                           !    Initial Parameters    !
                           ! (Angstroms and Degrees)  !
 --------------------------                            --------------------------
 ! Name  Definition              Value          Derivative Info.                !
 --------------------------------------------------------------------------------
 ! R1    R(1,2)                  1.4014         estimate D2E/DX2                !
 ! R2    R(1,6)                  1.4014         estimate D2E/DX2                !
 ! R3    R(1,7)                  1.54           estimate D2E/DX2                !
 ! R4    R(2,3)                  1.4014         estimate D2E/DX2                !
 ! R5    R(2,13)                 1.07           estimate D2E/DX2                !
 ! R6    R(3,4)                  1.4014         estimate D2E/DX2                !
 ! R7    R(3,22)                 1.76           estimate D2E/DX2                !
 ! R8    R(4,5)                  1.4014         estimate D2E/DX2                !
 ! R9    R(4,21)                 1.76           estimate D2E/DX2                !
 ! R10   R(5,6)                  1.4014         estimate D2E/DX2                !
 ! R11   R(5,19)                 1.76           estimate D2E/DX2                !
 ! R12   R(6,14)                 1.07           estimate D2E/DX2                !
 ! R13   R(7,8)                  1.4014         estimate D2E/DX2                !
 ! R14   R(7,12)                 1.4014         estimate D2E/DX2                !
 ! R15   R(8,9)                  1.4014         estimate D2E/DX2                !
 ! R16   R(8,15)                 1.07           estimate D2E/DX2                !
 ! R17   R(9,10)                 1.4014         estimate D2E/DX2                !
 ! R18   R(9,16)                 1.07           estimate D2E/DX2                !
 ! R19   R(10,11)                1.4014         estimate D2E/DX2                !
 ! R20   R(10,20)                1.76           estimate D2E/DX2                !
 ! R21   R(11,12)                1.4014         estimate D2E/DX2                !
 ! R22   R(11,17)                1.07           estimate D2E/DX2                !
 ! R23   R(12,18)                1.76           estimate D2E/DX2                !
 ! A1    A(2,1,6)              120.0            estimate D2E/DX2                !
 ! A2    A(2,1,7)              120.0            estimate D2E/DX2                !
 ! A3    A(6,1,7)              120.0            estimate D2E/DX2                !
 ! A4    A(1,2,3)              120.0            estimate D2E/DX2                !
 ! A5    A(1,2,13)             120.0            estimate D2E/DX2                !
 ! A6    A(3,2,13)             120.0            estimate D2E/DX2                !
 ! A7    A(2,3,4)              120.0            estimate D2E/DX2                !
 ! A8    A(2,3,22)             120.0            estimate D2E/DX2                !
 ! A9    A(4,3,22)             120.0            estimate D2E/DX2                !
 ! A10   A(3,4,5)              120.0            estimate D2E/DX2                !
 ! A11   A(3,4,21)             120.0            estimate D2E/DX2                !
 ! A12   A(5,4,21)             120.0            estimate D2E/DX2                !
 ! A13   A(4,5,6)              120.0            estimate D2E/DX2                !
 ! A14   A(4,5,19)             120.0            estimate D2E/DX2                !
 ! A15   A(6,5,19)             120.0            estimate D2E/DX2                !
 ! A16   A(1,6,5)              120.0            estimate D2E/DX2                !
 ! A17   A(1,6,14)             120.0            estimate D2E/DX2                !
 ! A18   A(5,6,14)             120.0            estimate D2E/DX2                !
 ! A19   A(1,7,8)              120.0            estimate D2E/DX2                !
 ! A20   A(1,7,12)             120.0            estimate D2E/DX2                !
 ! A21   A(8,7,12)             120.0            estimate D2E/DX2                !
 ! A22   A(7,8,9)              120.0            estimate D2E/DX2                !
 ! A23   A(7,8,15)             120.0            estimate D2E/DX2                !
 ! A24   A(9,8,15)             120.0            estimate D2E/DX2                !
 ! A25   A(8,9,10)             120.0            estimate D2E/DX2                !
 ! A26   A(8,9,16)             120.0            estimate D2E/DX2                !
 ! A27   A(10,9,16)            120.0            estimate D2E/DX2                !
 ! A28   A(9,10,11)            120.0            estimate D2E/DX2                !
 ! A29   A(9,10,20)            120.0            estimate D2E/DX2                !
 ! A30   A(11,10,20)           120.0            estimate D2E/DX2                !
 ! A31   A(10,11,12)           120.0            estimate D2E/DX2                !
 ! A32   A(10,11,17)           120.0            estimate D2E/DX2                !
 ! A33   A(12,11,17)           120.0            estimate D2E/DX2                !
 ! A34   A(7,12,11)            120.0            estimate D2E/DX2                !
 ! A35   A(7,12,18)            120.0            estimate D2E/DX2                !
 ! A36   A(11,12,18)           120.0            estimate D2E/DX2                !
 ! D1    D(6,1,2,3)              0.0001         estimate D2E/DX2                !
 ! D2    D(6,1,2,13)           180.0            estimate D2E/DX2                !
 ! D3    D(7,1,2,3)           -180.0            estimate D2E/DX2                !
 ! D4    D(7,1,2,13)            -0.0001         estimate D2E/DX2                !
 ! D5    D(2,1,6,5)             -0.0001         estimate D2E/DX2                !
 ! D6    D(2,1,6,14)           180.0            estimate D2E/DX2                !
 ! D7    D(7,1,6,5)            180.0            estimate D2E/DX2                !
 ! D8    D(7,1,6,14)             0.0            estimate D2E/DX2                !
 ! D9    D(2,1,7,8)             -0.0001         estimate D2E/DX2                !
 ! D10   D(2,1,7,12)           179.9998         estimate D2E/DX2                !
 ! D11   D(6,1,7,8)            179.9999         estimate D2E/DX2                !
 ! D12   D(6,1,7,12)            -0.0002         estimate D2E/DX2                !
 ! D13   D(1,2,3,4)              0.0            estimate D2E/DX2                !
 ! D14   D(1,2,3,22)           180.0            estimate D2E/DX2                !
 ! D15   D(13,2,3,4)          -179.9999         estimate D2E/DX2                !
 ! D16   D(13,2,3,22)            0.0001         estimate D2E/DX2                !
 ! D17   D(2,3,4,5)             -0.0001         estimate D2E/DX2                !
 ! D18   D(2,3,4,21)           180.0            estimate D2E/DX2                !
 ! D19   D(22,3,4,5)           179.9999         estimate D2E/DX2                !
 ! D20   D(22,3,4,21)            0.0            estimate D2E/DX2                !
 ! D21   D(3,4,5,6)              0.0001         estimate D2E/DX2                !
 ! D22   D(3,4,5,19)          -179.9999         estimate D2E/DX2                !
 ! D23   D(21,4,5,6)          -180.0            estimate D2E/DX2                !
 ! D24   D(21,4,5,19)            0.0            estimate D2E/DX2                !
 ! D25   D(4,5,6,1)              0.0            estimate D2E/DX2                !
 ! D26   D(4,5,6,14)           179.9999         estimate D2E/DX2                !
 ! D27   D(19,5,6,1)           180.0            estimate D2E/DX2                !
 ! D28   D(19,5,6,14)           -0.0001         estimate D2E/DX2                !
 ! D29   D(1,7,8,9)            179.9999         estimate D2E/DX2                !
 ! D30   D(1,7,8,15)             0.0001         estimate D2E/DX2                !
 ! D31   D(12,7,8,9)             0.0001         estimate D2E/DX2                !
 ! D32   D(12,7,8,15)         -179.9998         estimate D2E/DX2                !
 ! D33   D(1,7,12,11)         -179.9999         estimate D2E/DX2                !
 ! D34   D(1,7,12,18)            0.0            estimate D2E/DX2                !
 ! D35   D(8,7,12,11)           -0.0001         estimate D2E/DX2                !
 ! D36   D(8,7,12,18)          179.9999         estimate D2E/DX2                !
 ! D37   D(7,8,9,10)             0.0            estimate D2E/DX2                !
 ! D38   D(7,8,9,16)           180.0            estimate D2E/DX2                !
 ! D39   D(15,8,9,10)          179.9998         estimate D2E/DX2                !
 ! D40   D(15,8,9,16)           -0.0002         estimate D2E/DX2                !
 ! D41   D(8,9,10,11)            0.0            estimate D2E/DX2                !
 ! D42   D(8,9,10,20)         -179.9999         estimate D2E/DX2                !
 ! D43   D(16,9,10,11)         180.0            estimate D2E/DX2                !
 ! D44   D(16,9,10,20)           0.0001         estimate D2E/DX2                !
 ! D45   D(9,10,11,12)           0.0            estimate D2E/DX2                !
 ! D46   D(9,10,11,17)        -179.9998         estimate D2E/DX2                !
 ! D47   D(20,10,11,12)        179.9999         estimate D2E/DX2                !
 ! D48   D(20,10,11,17)          0.0001         estimate D2E/DX2                !
 ! D49   D(10,11,12,7)           0.0            estimate D2E/DX2                !
 ! D50   D(10,11,12,18)       -179.9999         estimate D2E/DX2                !
 ! D51   D(17,11,12,7)         179.9999         estimate D2E/DX2                !
 ! D52   D(17,11,12,18)         -0.0001         estimate D2E/DX2                !
 --------------------------------------------------------------------------------
 Trust Radius=3.00D-01 FncErr=1.00D-07 GrdErr=1.00D-06 EigMax=2.50D+02 EigMin=1.00D-04
 Number of steps in this run=    121 maximum allowed number of steps=    132.
 GradGradGradGradGradGradGradGradGradGradGradGradGradGradGradGradGradGrad

                          Input orientation:                          
 ---------------------------------------------------------------------
 Center     Atomic      Atomic             Coordinates (Angstroms)
 Number     Number       Type             X           Y           Z
 ---------------------------------------------------------------------
      1          6           0       -0.391931   -0.359148   -0.015833
      2          6           0        0.940450   -0.329262   -0.449180
      3          6           0        1.648343    0.880189   -0.455252
      4          6           0        1.023856    2.059754   -0.027977
      5          6           0       -0.308526    2.029869    0.405367
      6          6           0       -1.016419    0.820418    0.411440
      7          6           0       -1.169836   -1.688215   -0.009160
      8          6           0       -0.545349   -2.867780   -0.436434
      9          6           0       -1.253242   -4.077231   -0.430360
     10          6           0       -2.585622   -4.107118    0.002990
     11          6           0       -3.210109   -2.927553    0.430265
     12          6           0       -2.502216   -1.718101    0.424191
     13          1           0        1.417260   -1.229886   -0.775412
     14          1           0       -2.033722    0.797599    0.742309
     15          1           0        0.471954   -2.844961   -0.767304
     16          1           0       -0.776432   -4.977855   -0.756594
     17          1           0       -4.227410   -2.950372    0.761140
     18         17           0       -3.286501   -0.236702    0.960802
     19         17           0       -1.092812    3.511270    0.941973
     20         17           0       -3.474654   -5.626053    0.010621
     21         17           0        1.912891    3.578688   -0.035603
     22         17           0        3.321664    0.917722   -0.999486
 ---------------------------------------------------------------------
                    Distance matrix (angstroms):
                    1          2          3          4          5
     1  C    0.000000
     2  C    1.401400   0.000000
     3  C    2.427296   1.401400   0.000000
     4  C    2.802800   2.427296   1.401400   0.000000
     5  C    2.427296   2.802800   2.427296   1.401400   0.000000
     6  C    1.401400   2.427296   2.802800   2.427296   1.401400
     7  C    1.540000   2.548270   3.838989   4.342800   3.838989
     8  C    2.548270   2.941400   4.342800   5.187469   4.975106
     9  C    3.838989   4.342800   5.744200   6.558176   6.235992
    10  C    4.342800   5.187469   6.558176   7.145600   6.558176
    11  C    3.838989   4.975106   6.235992   6.558176   5.744200
    12  C    2.548270   3.813607   4.975106   5.187469   4.342800
    13  H    2.146700   1.070000   2.146700   3.396345   3.872800
    14  H    2.146700   3.396345   3.872800   3.396345   2.146700
    15  H    2.736837   2.578650   3.918930   4.990735   5.074276
    16  H    4.693509   4.965039   6.347206   7.300676   7.118798
    17  H    4.693509   5.919617   7.118798   7.300676   6.347206
    18  Cl   3.057342   4.456874   5.254079   4.983028   3.783409
    19  Cl   4.048303   4.562800   4.048303   2.743718   1.760000
    20  Cl   6.102800   6.910901   8.294174   8.905600   8.294174
    21  Cl   4.562800   4.048303   2.743718   1.760000   2.743718
    22  Cl   4.048303   2.743718   1.760000   2.743718   4.048303
                    6          7          8          9         10
     6  C    0.000000
     7  C    2.548270   0.000000
     8  C    3.813607   1.401400   0.000000
     9  C    4.975106   2.427296   1.401400   0.000000
    10  C    5.187469   2.802800   2.427296   1.401400   0.000000
    11  C    4.342800   2.427296   2.802800   2.427296   1.401400
    12  C    2.941400   1.401400   2.427296   2.802800   2.427296
    13  H    3.396345   2.736837   2.578650   3.918930   4.990735
    14  H    1.070000   2.736837   4.127917   5.074276   4.990735
    15  H    4.127917   2.146700   1.070000   2.146700   3.396345
    16  H    5.919617   3.396345   2.146700   1.070000   2.146700
    17  H    4.965039   3.396345   3.872800   3.396345   2.146700
    18  Cl   2.563702   2.743718   4.048303   4.562800   4.048303
    19  Cl   2.743718   5.286324   6.549198   7.713260   7.819846
    20  Cl   6.910901   4.562800   4.048303   2.743718   1.760000
    21  Cl   4.048303   6.102800   6.910901   8.294174   8.905600
    22  Cl   4.562800   5.286324   5.440665   6.797295   7.819846
                   11         12         13         14         15
    11  C    0.000000
    12  C    1.401400   0.000000
    13  H    5.074276   4.127917   0.000000
    14  H    3.918930   2.578650   4.280590   0.000000
    15  H    3.872800   3.396345   1.871400   4.671787   0.000000
    16  H    3.396345   3.872800   4.342800   6.097816   2.471400
    17  H    1.070000   2.146700   6.097816   4.342800   4.942800
    18  Cl   2.743718   1.760000   5.111382   1.639199   4.890332
    19  Cl   6.797295   5.440665   5.632800   2.879094   6.765486
    20  Cl   2.743718   4.048303   6.623817   6.623817   4.890332
    21  Cl   8.294174   6.910901   4.890332   4.890332   6.623817
    22  Cl   7.713260   6.549198   2.879094   5.632800   4.725732
                   16         17         18         19         20
    16  H    0.000000
    17  H    4.280590   0.000000
    18  Cl   5.632800   2.879094   0.000000
    19  Cl   8.663168   7.184095   4.342800   0.000000
    20  Cl   2.879094   2.879094   5.475705   9.488480   0.000000
    21  Cl   8.998151   8.998151   6.525618   3.161400  10.665600
    22  Cl   7.184095   8.663168   6.988795   5.475705   9.488480
                   21         22
    21  Cl   0.000000
    22  Cl   3.161400   0.000000
 Stoichiometry    C12H5Cl5
 Framework group  C1[X(C12H5Cl5)]
 Deg. of freedom    60
 Full point group                 C1      NOp   1
 Largest Abelian subgroup         C1      NOp   1
 Largest concise Abelian subgroup C1      NOp   1
                         Standard orientation:                         
 ---------------------------------------------------------------------
 Center     Atomic      Atomic             Coordinates (Angstroms)
 Number     Number       Type             X           Y           Z
 ---------------------------------------------------------------------
      1          6           0       -0.092112   -0.270501    0.000002
      2          6           0       -0.842622   -1.453995    0.000002
      3          6           0       -2.242812   -1.395781    0.000000
      4          6           0       -2.892493   -0.154074   -0.000001
      5          6           0       -2.141983    1.029420    0.000002
      6          6           0       -0.741793    0.971206    0.000003
      7          6           0        1.446558   -0.334472    0.000003
      8          6           0        2.096239   -1.576179    0.000005
      9          6           0        3.496429   -1.634393    0.000004
     10          6           0        4.246939   -0.450899    0.000001
     11          6           0        3.597259    0.790808   -0.000001
     12          6           0        2.197068    0.849022    0.000000
     13          1           0       -0.346576   -2.402066    0.000001
     14          1           0       -0.168762    1.874830    0.000004
     15          1           0        1.523208   -2.479803    0.000004
     16          1           0        3.992475   -2.582464    0.000005
     17          1           0        4.170289    1.694431   -0.000005
     18         17           0        1.381143    2.408466   -0.000004
     19         17           0       -2.957909    2.588864    0.000004
     20         17           0        6.005420   -0.524009   -0.000002
     21         17           0       -4.650974   -0.080964   -0.000004
     22         17           0       -3.185368   -2.882115   -0.000002
 ---------------------------------------------------------------------
 Rotational constants (GHZ):           0.5503297           0.1378588           0.1102428
 Standard basis: 6-311+G(d,p) (5D, 7F)
 There are   461 symmetry adapted cartesian basis functions of A   symmetry.
 There are   444 symmetry adapted basis functions of A   symmetry.
   444 basis functions,   737 primitive gaussians,   461 cartesian basis functions
    81 alpha electrons       81 beta electrons
       nuclear repulsion energy      1678.0024207149 Hartrees.
 NAtoms=   22 NActive=   22 NUniq=   22 SFac= 1.00D+00 NAtFMM=   60 NAOKFM=F Big=F
 Integral buffers will be    131072 words long.
 Raffenetti 2 integral format.
 Two-electron integral symmetry is turned on.
 One-electron integrals computed using PRISM.
 NBasis=   444 RedAO= T EigKep=  1.07D-06  NBF=   444
 NBsUse=   438 1.00D-06 EigRej=  7.23D-07 NBFU=   438
 ExpMin= 4.38D-02 ExpMax= 1.06D+05 ExpMxC= 3.62D+03 IAcc=3 IRadAn=         5 AccDes= 0.00D+00
 Harris functional with IExCor=  402 and IRadAn=       5 diagonalized for initial guess.
 HarFok:  IExCor=  402 AccDes= 0.00D+00 IRadAn=         5 IDoV= 1 UseB2=F ITyADJ=14
 ICtDFT=  3500011 ScaDFX=  1.000000  1.000000  1.000000  1.000000
 FoFCou: FMM=F IPFlag=           0 FMFlag=      100000 FMFlg1=           0
         NFxFlg=           0 DoJE=T BraDBF=F KetDBF=T FulRan=T
         wScrn=  0.000000 ICntrl=       500 IOpCl=  0 I1Cent=   200000004 NGrid=           0
         NMat0=    1 NMatS0=      1 NMatT0=    0 NMatD0=    1 NMtDS0=    0 NMtDT0=    0
 Petite list used in FoFCou.
 Requested convergence on RMS density matrix=1.00D-08 within  32 cycles.
 Requested convergence on MAX density matrix=1.00D-06.
 Requested convergence on             energy=1.00D-06.
 No special actions if energy rises.
 SCF Done:  E(RB3LYP) =  -2761.45809601     A.U. after   15 cycles
            NFock= 15  Conv=0.79D-08     -V/T= 2.0026
 QCSCF skips out because SCF is already converged.

 **********************************************************************

            Population analysis using the SCF Density.

 **********************************************************************

 Orbital symmetries:
       Occupied  (A) (A) (A) (A) (A) (A) (A) (A) (A) (A) (A) (A)
                 (A) (A) (A) (A) (A) (A) (A) (A) (A) (A) (A) (A)
                 (A) (A) (A) (A) (A) (A) (A) (A) (A) (A) (A) (A)
                 (A) (A) (A) (A) (A) (A) (A) (A) (A) (A) (A) (A)
                 (A) (A) (A) (A) (A) (A) (A) (A) (A) (A) (A) (A)
                 (A) (A) (A) (A) (A) (A) (A) (A) (A) (A) (A) (A)
                 (A) (A) (A) (A) (A) (A) (A) (A) (A)
       Virtual   (A) (A) (A) (A) (A) (A) (A) (A) (A) (A) (A) (A)
                 (A) (A) (A) (A) (A) (A) (A) (A) (A) (A) (A) (A)
                 (A) (A) (A) (A) (A) (A) (A) (A) (A) (A) (A) (A)
                 (A) (A) (A) (A) (A) (A) (A) (A) (A) (A) (A) (A)
                 (A) (A) (A) (A) (A) (A) (A) (A) (A) (A) (A) (A)
                 (A) (A) (A) (A) (A) (A) (A) (A) (A) (A) (A) (A)
                 (A) (A) (A) (A) (A) (A) (A) (A) (A) (A) (A) (A)
                 (A) (A) (A) (A) (A) (A) (A) (A) (A) (A) (A) (A)
                 (A) (A) (A) (A) (A) (A) (A) (A) (A) (A) (A) (A)
                 (A) (A) (A) (A) (A) (A) (A) (A) (A) (A) (A) (A)
                 (A) (A) (A) (A) (A) (A) (A) (A) (A) (A) (A) (A)
                 (A) (A) (A) (A) (A) (A) (A) (A) (A) (A) (A) (A)
                 (A) (A) (A) (A) (A) (A) (A) (A) (A) (A) (A) (A)
                 (A) (A) (A) (A) (A) (A) (A) (A) (A) (A) (A) (A)
                 (A) (A) (A) (A) (A) (A) (A) (A) (A) (A) (A) (A)
                 (A) (A) (A) (A) (A) (A) (A) (A) (A) (A) (A) (A)
                 (A) (A) (A) (A) (A) (A) (A) (A) (A) (A) (A) (A)
                 (A) (A) (A) (A) (A) (A) (A) (A) (A) (A) (A) (A)
                 (A) (A) (A) (A) (A) (A) (A) (A) (A) (A) (A) (A)
                 (A) (A) (A) (A) (A) (A) (A) (A) (A) (A) (A) (A)
                 (A) (A) (A) (A) (A) (A) (A) (A) (A) (A) (A) (A)
                 (A) (A) (A) (A) (A) (A) (A) (A) (A) (A) (A) (A)
                 (A) (A) (A) (A) (A) (A) (A) (A) (A) (A) (A) (A)
                 (A) (A) (A) (A) (A) (A) (A) (A) (A) (A) (A) (A)
                 (A) (A) (A) (A) (A) (A) (A) (A) (A) (A) (A) (A)
                 (A) (A) (A) (A) (A) (A) (A) (A) (A) (A) (A) (A)
                 (A) (A) (A) (A) (A) (A) (A) (A) (A) (A) (A) (A)
                 (A) (A) (A) (A) (A) (A) (A) (A) (A) (A) (A) (A)
                 (A) (A) (A) (A) (A) (A) (A) (A) (A) (A) (A) (A)
                 (A) (A) (A) (A) (A) (A) (A) (A) (A)
 The electronic state is 1-A.
 Alpha  occ. eigenvalues -- -101.58496-101.57779-101.57295-101.57006-101.56853
 Alpha  occ. eigenvalues --  -10.27740 -10.27211 -10.27147 -10.26993 -10.26652
 Alpha  occ. eigenvalues --  -10.23630 -10.22943 -10.22469 -10.22040 -10.21866
 Alpha  occ. eigenvalues --  -10.21498 -10.19091  -9.50277  -9.49202  -9.48721
 Alpha  occ. eigenvalues --   -9.48438  -9.48288  -7.26681  -7.25724  -7.25715
 Alpha  occ. eigenvalues --   -7.25682  -7.25217  -7.24924  -7.24787  -7.24678
 Alpha  occ. eigenvalues --   -7.24643  -7.24199  -7.24143  -7.23921  -7.23861
 Alpha  occ. eigenvalues --   -7.23776  -7.23692  -0.94655  -0.93559  -0.90734
 Alpha  occ. eigenvalues --   -0.89045  -0.86927  -0.86004  -0.84561  -0.79043
 Alpha  occ. eigenvalues --   -0.77852  -0.75826  -0.74124  -0.66429  -0.64273
 Alpha  occ. eigenvalues --   -0.63608  -0.61535  -0.55654  -0.53805  -0.53140
 Alpha  occ. eigenvalues --   -0.50751  -0.49716  -0.49103  -0.46971  -0.46470
 Alpha  occ. eigenvalues --   -0.46112  -0.45119  -0.43632  -0.42924  -0.41931
 Alpha  occ. eigenvalues --   -0.40561  -0.39605  -0.39504  -0.37953  -0.36675
 Alpha  occ. eigenvalues --   -0.35014  -0.34891  -0.34041  -0.33793  -0.33734
 Alpha  occ. eigenvalues --   -0.31367  -0.29799  -0.29385  -0.28797  -0.26843
 Alpha  occ. eigenvalues --   -0.25356
 Alpha virt. eigenvalues --   -0.07872  -0.06296  -0.04601  -0.03683  -0.03119
 Alpha virt. eigenvalues --   -0.01766  -0.00984   0.00247   0.00680   0.01268
 Alpha virt. eigenvalues --    0.01465   0.02579   0.03298   0.03384   0.03847
 Alpha virt. eigenvalues --    0.04292   0.04958   0.05801   0.06085   0.06249
 Alpha virt. eigenvalues --    0.06678   0.07347   0.08380   0.08395   0.08449
 Alpha virt. eigenvalues --    0.08624   0.09139   0.09156   0.09884   0.10174
 Alpha virt. eigenvalues --    0.10512   0.11079   0.11345   0.12014   0.12276
 Alpha virt. eigenvalues --    0.12650   0.12785   0.13421   0.13574   0.13739
 Alpha virt. eigenvalues --    0.14133   0.14164   0.15498   0.15989   0.16202
 Alpha virt. eigenvalues --    0.16709   0.16823   0.17602   0.17804   0.18130
 Alpha virt. eigenvalues --    0.18286   0.18695   0.18823   0.18894   0.18941
 Alpha virt. eigenvalues --    0.19119   0.20244   0.20724   0.21246   0.21447
 Alpha virt. eigenvalues --    0.21704   0.21997   0.22711   0.23843   0.23972
 Alpha virt. eigenvalues --    0.24245   0.24637   0.24723   0.25125   0.26130
 Alpha virt. eigenvalues --    0.26369   0.26661   0.26957   0.27870   0.28393
 Alpha virt. eigenvalues --    0.29252   0.29605   0.31190   0.31317   0.32077
 Alpha virt. eigenvalues --    0.32358   0.32980   0.34037   0.34356   0.34590
 Alpha virt. eigenvalues --    0.36517   0.38083   0.39632   0.40870   0.42568
 Alpha virt. eigenvalues --    0.42655   0.43762   0.43866   0.44827   0.44908
 Alpha virt. eigenvalues --    0.45092   0.45914   0.46366   0.46474   0.47022
 Alpha virt. eigenvalues --    0.47977   0.48423   0.48831   0.49622   0.50300
 Alpha virt. eigenvalues --    0.50660   0.50731   0.51986   0.53042   0.53983
 Alpha virt. eigenvalues --    0.55126   0.56062   0.56565   0.57522   0.58265
 Alpha virt. eigenvalues --    0.58721   0.58745   0.59925   0.60662   0.61093
 Alpha virt. eigenvalues --    0.61388   0.62690   0.62907   0.63880   0.64545
 Alpha virt. eigenvalues --    0.65595   0.66184   0.66432   0.67286   0.67375
 Alpha virt. eigenvalues --    0.68057   0.70274   0.73353   0.74231   0.75753
 Alpha virt. eigenvalues --    0.78432   0.80530   0.81457   0.82299   0.82496
 Alpha virt. eigenvalues --    0.82793   0.83124   0.83478   0.83917   0.83989
 Alpha virt. eigenvalues --    0.84335   0.84987   0.85192   0.85673   0.85801
 Alpha virt. eigenvalues --    0.86006   0.86803   0.86979   0.87678   0.87922
 Alpha virt. eigenvalues --    0.88337   0.89592   0.90317   0.90900   0.91465
 Alpha virt. eigenvalues --    0.92002   0.93274   0.94168   0.94406   0.94549
 Alpha virt. eigenvalues --    0.94830   0.95193   0.96267   0.96878   0.97766
 Alpha virt. eigenvalues --    0.97767   0.98892   0.98941   0.99290   1.02278
 Alpha virt. eigenvalues --    1.04732   1.05406   1.06360   1.07101   1.07980
 Alpha virt. eigenvalues --    1.10028   1.10098   1.11328   1.15848   1.18189
 Alpha virt. eigenvalues --    1.20245   1.21511   1.22009   1.23177   1.23875
 Alpha virt. eigenvalues --    1.24785   1.26785   1.26851   1.28824   1.29242
 Alpha virt. eigenvalues --    1.29431   1.30790   1.33254   1.36359   1.37636
 Alpha virt. eigenvalues --    1.40856   1.43315   1.46673   1.47907   1.49259
 Alpha virt. eigenvalues --    1.52294   1.52910   1.53642   1.55718   1.58558
 Alpha virt. eigenvalues --    1.59366   1.59818   1.60096   1.63507   1.65026
 Alpha virt. eigenvalues --    1.67349   1.68815   1.70820   1.71551   1.75010
 Alpha virt. eigenvalues --    1.79079   1.80296   1.81767   1.83787   1.84787
 Alpha virt. eigenvalues --    1.86088   1.86663   1.88060   1.89017   1.91060
 Alpha virt. eigenvalues --    1.91804   1.93374   1.95104   1.95443   1.96471
 Alpha virt. eigenvalues --    1.98406   1.98756   1.99888   2.05554   2.06764
 Alpha virt. eigenvalues --    2.08940   2.10646   2.15708   2.19591   2.19713
 Alpha virt. eigenvalues --    2.23366   2.23757   2.24268   2.25704   2.25804
 Alpha virt. eigenvalues --    2.26998   2.27699   2.28833   2.29382   2.32698
 Alpha virt. eigenvalues --    2.32890   2.34041   2.36106   2.40695   2.41911
 Alpha virt. eigenvalues --    2.43384   2.44839   2.46940   2.49088   2.50191
 Alpha virt. eigenvalues --    2.52418   2.53896   2.55277   2.56121   2.60063
 Alpha virt. eigenvalues --    2.60242   2.61696   2.61849   2.65347   2.66199
 Alpha virt. eigenvalues --    2.69669   2.70849   2.72219   2.73098   2.73796
 Alpha virt. eigenvalues --    2.74400   2.77198   2.77602   2.78818   2.80439
 Alpha virt. eigenvalues --    2.82738   2.83952   2.84599   2.90150   2.92541
 Alpha virt. eigenvalues --    2.93704   3.01815   3.04438   3.06111   3.06575
 Alpha virt. eigenvalues --    3.12472   3.14225   3.16407   3.17166   3.21205
 Alpha virt. eigenvalues --    3.22511   3.23373   3.32483   3.38198   3.38747
 Alpha virt. eigenvalues --    3.42945   3.51633   3.56251   3.65277   3.69822
 Alpha virt. eigenvalues --    3.72136   3.78138   3.84444   4.00699   4.06096
 Alpha virt. eigenvalues --    4.12703   4.18229   4.44456   4.78759   4.82935
 Alpha virt. eigenvalues --    9.73331   9.76027   9.78673   9.80748   9.87206
 Alpha virt. eigenvalues --   23.37294  23.52187  23.81800  23.83906  23.84952
 Alpha virt. eigenvalues --   23.89942  23.94831  23.98495  24.01971  24.03087
 Alpha virt. eigenvalues --   24.09770  24.10225  25.76638  25.80664  25.80920
 Alpha virt. eigenvalues --   25.83754  25.89119  26.09526  26.11650  26.12403
 Alpha virt. eigenvalues --   26.18120  26.46896  26.57283  26.63172  26.66752
 Alpha virt. eigenvalues --   26.78718  26.85902 215.72125 215.75061 215.78158
 Alpha virt. eigenvalues --  215.80481 215.89685
          Condensed to atoms (all electrons):
               1          2          3          4          5          6
     1  C   20.182316  -0.300399  -3.601549  -0.009038  -4.323890  -1.870653
     2  C   -0.300399  19.512886   0.862608  -5.320809  -0.107779  -2.063371
     3  C   -3.601549   0.862608  15.837156  -3.158761  -0.953085   1.777471
     4  C   -0.009038  -5.320809  -3.158761  24.357249  -1.839294  -6.624666
     5  C   -4.323890  -0.107779  -0.953085  -1.839294  13.248044   2.114950
     6  C   -1.870653  -2.063371   1.777471  -6.624666   2.114950  15.025144
     7  C    6.418100  -2.274998  -2.132785  -1.744327  -1.920911   0.461349
     8  C   -0.713305   6.052357  -0.793459   0.203148  -2.249106  -5.471801
     9  C   -1.071334  -2.439611   0.138838  -0.246640   0.145571   1.098662
    10  C   -1.423627   0.280621  -0.156792  -0.006209  -0.007175  -0.801192
    11  C   -4.678771  -2.972142  -0.397272   0.088291   1.571036   2.433607
    12  C   -1.400920  -4.882648  -1.469942   0.400739   1.332433   1.424905
    13  H    0.111162   0.204641  -0.142525  -0.000870  -0.007822  -0.003984
    14  H   -0.275019  -0.078414  -0.055792   0.075757   0.117665   0.398103
    15  H    0.037174   0.084697   0.016497  -0.000014  -0.000304   0.008755
    16  H    0.002244   0.019514   0.001789   0.000480  -0.000650  -0.003961
    17  H    0.012456   0.002830   0.000050   0.000235  -0.000009   0.000364
    18  Cl   1.120822   0.474471   0.130530  -0.137147  -0.845580  -1.234991
    19  Cl  -0.658932   0.060080   0.212893  -0.041180  -0.490966   0.450712
    20  Cl  -0.047304  -0.025731  -0.002104  -0.002211  -0.001436  -0.031797
    21  Cl   0.080612  -0.336076  -0.437225  -0.148159   0.481769  -0.315556
    22  Cl  -0.852536   0.311038   0.114062  -0.188916  -0.155758   0.272412
               7          8          9         10         11         12
     1  C    6.418100  -0.713305  -1.071334  -1.423627  -4.678771  -1.400920
     2  C   -2.274998   6.052357  -2.439611   0.280621  -2.972142  -4.882648
     3  C   -2.132785  -0.793459   0.138838  -0.156792  -0.397272  -1.469942
     4  C   -1.744327   0.203148  -0.246640  -0.006209   0.088291   0.400739
     5  C   -1.920911  -2.249106   0.145571  -0.007175   1.571036   1.332433
     6  C    0.461349  -5.471801   1.098662  -0.801192   2.433607   1.424905
     7  C   14.245740  -3.223524   1.271234  -3.606941  -2.838913   1.601057
     8  C   -3.223524  21.954031  -4.784697   1.509488  -5.255375  -1.552677
     9  C    1.271234  -4.784697  18.122670  -1.711128  -0.693493  -3.804848
    10  C   -3.606941   1.509488  -1.711128  15.942910   1.289448  -4.688311
    11  C   -2.838913  -5.255375  -0.693493   1.289448  17.538625   0.223701
    12  C    1.601057  -1.552677  -3.804848  -4.688311   0.223701  20.151503
    13  H    0.081345   0.008013   0.025175   0.002705   0.010696   0.052156
    14  H   -0.093843  -0.005411  -0.001058   0.043652   0.166238   0.141858
    15  H    0.046339   0.361266  -0.120429  -0.027272  -0.033523  -0.049238
    16  H    0.004503   0.003024   0.227800   0.077772   0.003260   0.021540
    17  H    0.081228   0.004159   0.011225  -0.007382   0.318875  -0.050357
    18  Cl   0.426071   0.666021   0.006449  -0.312304  -0.787312  -0.974515
    19  Cl  -0.188696  -0.130659  -0.005262  -0.002587   0.043617   0.080022
    20  Cl  -0.240063   0.063053   0.233821  -0.982502   0.249365  -0.034769
    21  Cl  -0.058933  -0.016905  -0.006981  -0.001462  -0.006906  -0.054819
    22  Cl  -0.173990  -0.074004   0.029763  -0.005527  -0.008902  -0.082945
              13         14         15         16         17         18
     1  C    0.111162  -0.275019   0.037174   0.002244   0.012456   1.120822
     2  C    0.204641  -0.078414   0.084697   0.019514   0.002830   0.474471
     3  C   -0.142525  -0.055792   0.016497   0.001789   0.000050   0.130530
     4  C   -0.000870   0.075757  -0.000014   0.000480   0.000235  -0.137147
     5  C   -0.007822   0.117665  -0.000304  -0.000650  -0.000009  -0.845580
     6  C   -0.003984   0.398103   0.008755  -0.003961   0.000364  -1.234991
     7  C    0.081345  -0.093843   0.046339   0.004503   0.081228   0.426071
     8  C    0.008013  -0.005411   0.361266   0.003024   0.004159   0.666021
     9  C    0.025175  -0.001058  -0.120429   0.227800   0.011225   0.006449
    10  C    0.002705   0.043652  -0.027272   0.077772  -0.007382  -0.312304
    11  C    0.010696   0.166238  -0.033523   0.003260   0.318875  -0.787312
    12  C    0.052156   0.141858  -0.049238   0.021540  -0.050357  -0.974515
    13  H    0.542697  -0.000095   0.002169   0.000041  -0.000000  -0.000580
    14  H   -0.000095   0.667855  -0.000117  -0.000003   0.000084  -0.221944
    15  H    0.002169  -0.000117   0.544654  -0.007470   0.000072   0.000073
    16  H    0.000041  -0.000003  -0.007470   0.509137  -0.000276   0.000849
    17  H   -0.000000   0.000084   0.000072  -0.000276   0.491068  -0.019468
    18  Cl  -0.000580  -0.221944   0.000073   0.000849  -0.019468  18.124300
    19  Cl   0.001040  -0.027202   0.000046  -0.000001  -0.000022  -0.075108
    20  Cl   0.000077   0.000238  -0.000307  -0.012920  -0.010301  -0.011222
    21  Cl  -0.001217   0.001211   0.000069   0.000000   0.000000   0.003352
    22  Cl  -0.021507   0.000928   0.000354  -0.000004   0.000000   0.002259
              19         20         21         22
     1  C   -0.658932  -0.047304   0.080612  -0.852536
     2  C    0.060080  -0.025731  -0.336076   0.311038
     3  C    0.212893  -0.002104  -0.437225   0.114062
     4  C   -0.041180  -0.002211  -0.148159  -0.188916
     5  C   -0.490966  -0.001436   0.481769  -0.155758
     6  C    0.450712  -0.031797  -0.315556   0.272412
     7  C   -0.188696  -0.240063  -0.058933  -0.173990
     8  C   -0.130659   0.063053  -0.016905  -0.074004
     9  C   -0.005262   0.233821  -0.006981   0.029763
    10  C   -0.002587  -0.982502  -0.001462  -0.005527
    11  C    0.043617   0.249365  -0.006906  -0.008902
    12  C    0.080022  -0.034769  -0.054819  -0.082945
    13  H    0.001040   0.000077  -0.001217  -0.021507
    14  H   -0.027202   0.000238   0.001211   0.000928
    15  H    0.000046  -0.000307   0.000069   0.000354
    16  H   -0.000001  -0.012920   0.000000  -0.000004
    17  H   -0.000022  -0.010301   0.000000   0.000000
    18  Cl  -0.075108  -0.011222   0.003352   0.002259
    19  Cl  17.513825  -0.000000  -0.264919   0.010404
    20  Cl  -0.000000  17.409208  -0.000005   0.000028
    21  Cl  -0.264919  -0.000005  17.644583  -0.222831
    22  Cl   0.010404   0.000028  -0.222831  17.493370
 Mulliken charges:
               1
     1  C   -0.737607
     2  C   -1.063764
     3  C    0.209397
     4  C    0.342343
     5  C   -0.107702
     6  C   -1.044461
     7  C   -0.139040
     8  C   -0.553636
     9  C   -0.425727
    10  C    0.593813
    11  C   -0.264149
    12  C   -0.383925
    13  H    0.136686
    14  H    0.145310
    15  H    0.136512
    16  H    0.153332
    17  H    0.165168
    18  Cl   0.664974
    19  Cl   0.512897
    20  Cl   0.446880
    21  Cl   0.660397
    22  Cl   0.552303
 Sum of Mulliken charges =  -0.00000
 Mulliken charges with hydrogens summed into heavy atoms:
               1
     1  C   -0.737607
     2  C   -0.927078
     3  C    0.209397
     4  C    0.342343
     5  C   -0.107702
     6  C   -0.899151
     7  C   -0.139040
     8  C   -0.417124
     9  C   -0.272394
    10  C    0.593813
    11  C   -0.098981
    12  C   -0.383925
    18  Cl   0.664974
    19  Cl   0.512897
    20  Cl   0.446880
    21  Cl   0.660397
    22  Cl   0.552303
 Electronic spatial extent (au):  <R**2>=           8423.1068
 Charge=             -0.0000 electrons
 Dipole moment (field-independent basis, Debye):
    X=              2.6594    Y=             -0.9851    Z=              0.0000  Tot=              2.8360
 Quadrupole moment (field-independent basis, Debye-Ang):
   XX=           -142.5647   YY=           -127.0571   ZZ=           -135.7921
   XY=             -1.7898   XZ=             -0.0000   YZ=             -0.0000
 Traceless Quadrupole moment (field-independent basis, Debye-Ang):
   XX=             -7.4267   YY=              8.0809   ZZ=             -0.6542
   XY=             -1.7898   XZ=             -0.0000   YZ=             -0.0000
 Octapole moment (field-independent basis, Debye-Ang**2):
  XXX=            -16.5420  YYY=             -1.3865  ZZZ=             -0.0001  XYY=             13.9537
  XXY=              6.9404  XXZ=             -0.0001  XZZ=             -9.7463  YZZ=              4.9358
  YYZ=             -0.0000  XYZ=             -0.0000
 Hexadecapole moment (field-independent basis, Debye-Ang**3):
 XXXX=          -8808.2868 YYYY=          -2178.4597 ZZZZ=           -157.9114 XXXY=             32.3527
 XXXZ=             -0.0003 YYYX=            -33.5350 YYYZ=             -0.0000 ZZZX=             -0.0001
 ZZZY=              0.0001 XXYY=          -1773.9393 XXZZ=          -1513.4984 YYZZ=           -418.8119
 XXYZ=             -0.0002 YYXZ=              0.0000 ZZXY=              6.7903
 N-N= 1.678002420715D+03 E-N=-9.892382958070D+03  KE= 2.754176020523D+03
 Calling FoFJK, ICntrl=      2127 FMM=F ISym2X=0 I1Cent= 0 IOpClX= 0 NMat=1 NMatS=1 NMatT=0.
 ***** Axes restored to original set *****
 -------------------------------------------------------------------
 Center     Atomic                   Forces (Hartrees/Bohr)
 Number     Number              X              Y              Z
 -------------------------------------------------------------------
      1        6          -0.011509613   -0.020892531   -0.000132011
      2        6          -0.000423862    0.016744574    0.003284556
      3        6          -0.004346680   -0.008038135   -0.000077495
      4        6           0.005207753    0.014097190    0.000931687
      5        6           0.004807746   -0.010733436   -0.003599748
      6        6           0.045487401    0.032119877   -0.008953820
      7        6           0.020449589    0.039068167    0.000600258
      8        6          -0.027190226   -0.010211790    0.007040216
      9        6          -0.001845097    0.010665551    0.002610903
     10        6           0.006315232    0.011736034    0.000123600
     11        6           0.004692539    0.000975009   -0.001362726
     12        6           0.006988549   -0.017635716   -0.005614681
     13        1           0.007208114   -0.002232126   -0.002794017
     14        1           0.038468255    0.027460266   -0.007516626
     15        1           0.005621339   -0.002903318   -0.002397377
     16        1           0.003487795   -0.007820365   -0.002617778
     17        1          -0.008259064    0.000071005    0.002734270
     18       17          -0.087372050   -0.059901933    0.017535561
     19       17          -0.000350275   -0.007548939   -0.001302329
     20       17           0.002237704    0.005184674    0.000236443
     21       17          -0.003009496   -0.006277033   -0.000187377
     22       17          -0.006665653   -0.003927025    0.001458493
 -------------------------------------------------------------------
 Cartesian Forces:  Max     0.087372050 RMS     0.018400528

 GradGradGradGradGradGradGradGradGradGradGradGradGradGradGradGradGradGrad
 Berny optimization.
 FormGI is forming the generalized inverse of G from B-inverse, IUseBI=4.
 Internal  Forces:  Max     0.273610291 RMS     0.049855205
 Search for a local minimum.
 Step number   1 out of a maximum of  121
 All quantities printed in internal units (Hartrees-Bohrs-Radians)
 Mixed Optimization -- RFO/linear search
 Second derivative matrix not updated -- first step.
 ITU=  0
     Eigenvalues ---    0.00237   0.01506   0.01506   0.02070   0.02070
     Eigenvalues ---    0.02070   0.02070   0.02070   0.02070   0.02070
     Eigenvalues ---    0.02070   0.02070   0.02070   0.02070   0.02070
     Eigenvalues ---    0.02070   0.02070   0.02070   0.02070   0.16000
     Eigenvalues ---    0.16000   0.16000   0.16000   0.16000   0.22375
     Eigenvalues ---    0.23478   0.23491   0.23493   0.24610   0.25000
     Eigenvalues ---    0.25000   0.25000   0.25000   0.25000   0.25000
     Eigenvalues ---    0.25000   0.25000   0.28519   0.29539   0.29539
     Eigenvalues ---    0.29539   0.29539   0.29539   0.37230   0.37230
     Eigenvalues ---    0.37230   0.37230   0.37230   0.41393   0.41554
     Eigenvalues ---    0.41697   0.41716   0.45389   0.45389   0.45389
     Eigenvalues ---    0.45389   0.45389   0.45389   0.45389   0.45389
 RFO step:  Lambda=-4.10835389D-01 EMin= 2.36824243D-03
 Linear search not attempted -- first point.
 Maximum step size (   0.300) exceeded in Quadratic search.
    -- Step size scaled by   0.383
 Iteration  1 RMS(Cart)=  0.20065225 RMS(Int)=  0.01021112
 Iteration  2 RMS(Cart)=  0.03829192 RMS(Int)=  0.00034026
 Iteration  3 RMS(Cart)=  0.00062060 RMS(Int)=  0.00004599
 Iteration  4 RMS(Cart)=  0.00000022 RMS(Int)=  0.00004599
 Variable       Old X    -DE/DX   Delta X   Delta X   Delta X     New X
                                 (Linear)    (Quad)   (Total)
    R1        2.64826   0.01430   0.00000   0.00649   0.00653   2.65479
    R2        2.64826   0.01334   0.00000   0.00618   0.00622   2.65448
    R3        2.91018   0.06446   0.00000   0.03545   0.03545   2.94563
    R4        2.64826  -0.01572   0.00000  -0.00707  -0.00707   2.64119
    R5        2.02201   0.00594   0.00000   0.00291   0.00291   2.02491
    R6        2.64826  -0.01867   0.00000  -0.00854  -0.00858   2.63969
    R7        3.32592  -0.00687   0.00000  -0.00373  -0.00373   3.32219
    R8        2.64826  -0.01682   0.00000  -0.00761  -0.00764   2.64062
    R9        3.32592  -0.00694   0.00000  -0.00376  -0.00376   3.32216
   R10        2.64826  -0.00582   0.00000  -0.00246  -0.00247   2.64580
   R11        3.32592  -0.00660   0.00000  -0.00358  -0.00358   3.32234
   R12        2.02201  -0.03948   0.00000  -0.01930  -0.01930   2.00271
   R13        2.64826   0.01932   0.00000   0.00923   0.00933   2.65760
   R14        2.64826   0.11834   0.00000   0.05363   0.05371   2.70197
   R15        2.64826  -0.02348   0.00000  -0.01096  -0.01093   2.63733
   R16        2.02201   0.00602   0.00000   0.00294   0.00294   2.02495
   R17        2.64826  -0.04116   0.00000  -0.01947  -0.01954   2.62872
   R18        2.02201   0.00893   0.00000   0.00437   0.00437   2.02637
   R19        2.64826  -0.03151   0.00000  -0.01463  -0.01473   2.63353
   R20        3.32592  -0.00560   0.00000  -0.00304  -0.00304   3.32288
   R21        2.64826   0.00218   0.00000   0.00153   0.00150   2.64976
   R22        2.02201   0.00870   0.00000   0.00425   0.00425   2.02626
   R23        3.32592  -0.00614   0.00000  -0.00333  -0.00333   3.32259
    A1        2.09440  -0.05836   0.00000  -0.03349  -0.03341   2.06098
    A2        2.09440  -0.12929   0.00000  -0.07506  -0.07510   2.01930
    A3        2.09440   0.18765   0.00000   0.10855   0.10851   2.20291
    A4        2.09440   0.03683   0.00000   0.02214   0.02218   2.11658
    A5        2.09440  -0.01293   0.00000  -0.00739  -0.00741   2.08698
    A6        2.09440  -0.02390   0.00000  -0.01475  -0.01477   2.07963
    A7        2.09440   0.00452   0.00000   0.00184   0.00180   2.09620
    A8        2.09440  -0.00865   0.00000  -0.00462  -0.00460   2.08979
    A9        2.09440   0.00413   0.00000   0.00278   0.00280   2.09719
   A10        2.09440  -0.01981   0.00000  -0.01232  -0.01239   2.08200
   A11        2.09440   0.00888   0.00000   0.00557   0.00561   2.10000
   A12        2.09440   0.01092   0.00000   0.00675   0.00679   2.10118
   A13        2.09440   0.01665   0.00000   0.00932   0.00928   2.10367
   A14        2.09440  -0.00182   0.00000  -0.00089  -0.00087   2.09352
   A15        2.09440  -0.01483   0.00000  -0.00843  -0.00841   2.08599
   A16        2.09440   0.02017   0.00000   0.01251   0.01254   2.10694
   A17        2.09440   0.01726   0.00000   0.01208   0.01207   2.10646
   A18        2.09440  -0.03743   0.00000  -0.02459  -0.02461   2.06979
   A19        2.09440  -0.19608   0.00000  -0.11468  -0.11478   1.97962
   A20        2.09440   0.27361   0.00000   0.15742   0.15732   2.25172
   A21        2.09440  -0.07753   0.00000  -0.04274  -0.04255   2.05185
   A22        2.09440   0.05889   0.00000   0.03548   0.03562   2.13001
   A23        2.09440  -0.02633   0.00000  -0.01565  -0.01572   2.07868
   A24        2.09440  -0.03256   0.00000  -0.01983  -0.01990   2.07450
   A25        2.09440  -0.00193   0.00000  -0.00411  -0.00416   2.09023
   A26        2.09440   0.00156   0.00000   0.00245   0.00248   2.09687
   A27        2.09440   0.00037   0.00000   0.00166   0.00168   2.09608
   A28        2.09440  -0.00150   0.00000  -0.00383  -0.00401   2.09038
   A29        2.09440   0.00198   0.00000   0.00262   0.00272   2.09711
   A30        2.09440  -0.00047   0.00000   0.00120   0.00130   2.09569
   A31        2.09440   0.03420   0.00000   0.02019   0.02005   2.11445
   A32        2.09440  -0.01684   0.00000  -0.00992  -0.00985   2.08454
   A33        2.09440  -0.01736   0.00000  -0.01027  -0.01020   2.08419
   A34        2.09440  -0.01213   0.00000  -0.00500  -0.00495   2.08945
   A35        2.09440   0.18433   0.00000   0.10577   0.10575   2.20014
   A36        2.09440  -0.17221   0.00000  -0.10077  -0.10080   1.99360
    D1        0.00000   0.00000   0.00000   0.00000   0.00000   0.00000
    D2        3.14159   0.00000   0.00000   0.00000   0.00000   3.14159
    D3       -3.14159   0.00000   0.00000  -0.00000  -0.00000  -3.14159
    D4       -0.00000  -0.00000   0.00000  -0.00000  -0.00000  -0.00000
    D5       -0.00000  -0.00000   0.00000  -0.00000  -0.00000  -0.00000
    D6        3.14159  -0.00000   0.00000  -0.00000  -0.00000   3.14159
    D7        3.14159   0.00000   0.00000   0.00000   0.00000   3.14159
    D8        0.00000  -0.00000   0.00000  -0.00000  -0.00000   0.00000
    D9       -0.00000  -0.00000   0.00000  -0.00000  -0.00000  -0.00000
   D10        3.14159  -0.00000   0.00000  -0.00000  -0.00000   3.14159
   D11        3.14159  -0.00000   0.00000  -0.00000  -0.00000   3.14159
   D12       -0.00000  -0.00000   0.00000  -0.00000  -0.00000  -0.00000
   D13        0.00000  -0.00000   0.00000  -0.00000  -0.00000   0.00000
   D14        3.14159  -0.00000   0.00000  -0.00000  -0.00000   3.14159
   D15       -3.14159  -0.00000   0.00000  -0.00000  -0.00000  -3.14159
   D16        0.00000  -0.00000   0.00000  -0.00000  -0.00000   0.00000
   D17       -0.00000   0.00000   0.00000   0.00000   0.00000  -0.00000
   D18        3.14159   0.00000   0.00000   0.00000   0.00000   3.14159
   D19        3.14159  -0.00000   0.00000  -0.00000  -0.00000   3.14159
   D20        0.00000  -0.00000   0.00000  -0.00000  -0.00000   0.00000
   D21        0.00000   0.00000   0.00000   0.00000   0.00000   0.00000
   D22       -3.14159   0.00000   0.00000   0.00000   0.00000  -3.14159
   D23       -3.14159  -0.00000   0.00000  -0.00000  -0.00000  -3.14159
   D24        0.00000   0.00000   0.00000   0.00000   0.00000   0.00000
   D25       -0.00000   0.00000   0.00000   0.00000   0.00000  -0.00000
   D26        3.14159   0.00000   0.00000   0.00000   0.00000   3.14159
   D27        3.14159   0.00000   0.00000  -0.00000  -0.00000   3.14159
   D28       -0.00000   0.00000   0.00000   0.00000   0.00000  -0.00000
   D29        3.14159   0.00000   0.00000   0.00000   0.00000   3.14159
   D30        0.00000   0.00000   0.00000   0.00000   0.00000   0.00000
   D31        0.00000   0.00000   0.00000   0.00000   0.00000   0.00000
   D32       -3.14159  -0.00000   0.00000  -0.00000  -0.00000  -3.14159
   D33       -3.14159   0.00000   0.00000   0.00000   0.00000  -3.14159
   D34        0.00000  -0.00000   0.00000  -0.00000  -0.00000   0.00000
   D35       -0.00000  -0.00000   0.00000  -0.00000  -0.00000  -0.00000
   D36        3.14159  -0.00000   0.00000  -0.00000  -0.00000   3.14159
   D37       -0.00000   0.00000   0.00000  -0.00000  -0.00000  -0.00000
   D38        3.14159  -0.00000   0.00000  -0.00000  -0.00000   3.14159
   D39        3.14159   0.00000   0.00000   0.00000   0.00000   3.14159
   D40       -0.00000   0.00000   0.00000   0.00000   0.00000  -0.00000
   D41       -0.00000  -0.00000   0.00000  -0.00000  -0.00000  -0.00000
   D42       -3.14159  -0.00000   0.00000  -0.00000  -0.00000  -3.14159
   D43        3.14159   0.00000   0.00000   0.00000   0.00000   3.14159
   D44        0.00000  -0.00000   0.00000  -0.00000  -0.00000   0.00000
   D45        0.00000   0.00000   0.00000   0.00000   0.00000   0.00000
   D46       -3.14159   0.00000   0.00000   0.00000   0.00000  -3.14159
   D47        3.14159   0.00000   0.00000   0.00000   0.00000   3.14159
   D48        0.00000   0.00000   0.00000   0.00000   0.00000   0.00000
   D49        0.00000   0.00000   0.00000   0.00000   0.00000   0.00000
   D50       -3.14159   0.00000   0.00000   0.00000   0.00000  -3.14159
   D51        3.14159   0.00000   0.00000   0.00000   0.00000   3.14159
   D52       -0.00000   0.00000   0.00000   0.00000   0.00000  -0.00000
         Item               Value     Threshold  Converged?
 Maximum Force            0.273610     0.000450     NO 
 RMS     Force            0.049855     0.000300     NO 
 Maximum Displacement     0.989641     0.001800     NO 
 RMS     Displacement     0.234363     0.001200     NO 
 Predicted change in Energy=-1.456583D-01
 GradGradGradGradGradGradGradGradGradGradGradGradGradGradGradGradGradGrad

                          Input orientation:                          
 ---------------------------------------------------------------------
 Center     Atomic      Atomic             Coordinates (Angstroms)
 Number     Number       Type             X           Y           Z
 ---------------------------------------------------------------------
      1          6           0       -0.528374   -0.248758    0.049851
      2          6           0        0.796722   -0.349848   -0.405694
      3          6           0        1.629438    0.770846   -0.469559
      4          6           0        1.150531    2.022840   -0.076644
      5          6           0       -0.165390    2.139286    0.378759
      6          6           0       -0.998193    1.015590    0.442089
      7          6           0       -1.340390   -1.579193    0.067506
      8          6           0       -0.604341   -2.689424   -0.383502
      9          6           0       -1.156703   -3.969743   -0.441978
     10          6           0       -2.474712   -4.171908   -0.045718
     11          6           0       -3.234200   -3.094635    0.406823
     12          6           0       -2.693683   -1.802421    0.471435
     13          1           0        1.179802   -1.302894   -0.710891
     14          1           0       -1.990792    1.139076    0.792297
     15          1           0        0.412270   -2.550128   -0.692268
     16          1           0       -0.567561   -4.794917   -0.791050
     17          1           0       -4.249587   -3.256560    0.710941
     18         17           0       -3.810196   -0.582412    1.068411
     19         17           0       -0.786090    3.706707    0.877625
     20         17           0       -3.181102   -5.780678   -0.115132
     21         17           0        2.192976    3.436285   -0.154624
     22         17           0        3.281212    0.598159   -1.046175
 ---------------------------------------------------------------------
                    Distance matrix (angstroms):
                    1          2          3          4          5
     1  C    0.000000
     2  C    1.404856   0.000000
     3  C    2.442444   1.397658   0.000000
     4  C    2.827522   2.421384   1.396862   0.000000
     5  C    2.437764   2.781513   2.411157   1.397355   0.000000
     6  C    1.404690   2.409331   2.792032   2.429125   1.400094
     7  C    1.558762   2.510469   3.825048   4.381792   3.912108
     8  C    2.480004   2.727102   4.119544   5.037774   4.908173
     9  C    3.805578   4.113493   5.498775   6.431784   6.243120
    10  C    4.380465   5.043809   6.438518   7.177621   6.733820
    11  C    3.943087   4.943922   6.274150   6.756342   6.067315
    12  C    2.698179   3.881012   5.118257   5.450779   4.683793
    13  H    2.146578   1.071537   2.135605   3.385798   3.852983
    14  H    2.148482   3.379691   3.851485   3.376981   2.122151
    15  H    2.594582   2.251924   3.544004   4.672906   4.844729
    16  H    4.623442   4.665663   5.992318   7.067108   7.043676
    17  H    4.830253   5.929678   7.223331   7.592999   6.775409
    18  Cl   3.452411   4.842599   5.812596   5.719029   4.600855
    19  Cl   4.049362   4.539586   4.033480   2.737981   1.758108
    20  Cl   6.137290   6.738058   8.135686   8.925212   8.489068
    21  Cl   4.585531   4.043187   2.742503   1.758010   2.743828
    22  Cl   4.053577   2.735256   1.758029   2.740348   4.035415
                    6          7          8          9         10
     6  C    0.000000
     7  C    2.643919   0.000000
     8  C    3.816261   1.406339   0.000000
     9  C    5.065594   2.451132   1.395614   0.000000
    10  C    5.415552   2.832258   2.410425   1.391057   0.000000
    11  C    4.679201   2.449126   2.775782   2.408790   1.393604
    12  C    3.288881   1.429823   2.425499   2.809611   2.435131
    13  H    3.383547   2.652095   2.283159   3.555792   4.693525
    14  H    1.059786   2.887444   4.238180   5.321576   5.398427
    15  H    3.998814   2.142846   1.071558   2.130640   3.373850
    16  H    5.955507   3.416909   2.144889   1.072311   2.140300
    17  H    5.375417   3.419210   3.848021   3.376949   2.135551
    18  Cl   3.294427   2.845228   4.101836   4.560297   3.988645
    19  Cl   2.734372   5.376270   6.521807   7.797858   8.110277
    20  Cl   7.159947   4.590649   4.033308   2.735782   1.758393
    21  Cl   4.049616   6.139139   6.738077   8.133399   8.926577
    22  Cl   4.549998   5.228800   5.132724   6.397333   7.542223
                   11         12         13         14         15
    11  C    0.000000
    12  C    1.402194   0.000000
    13  H    4.893162   4.080602   0.000000
    14  H    4.429330   3.041286   4.274980   0.000000
    15  H    3.847236   3.400031   1.464597   4.646382   0.000000
    16  H    3.381836   3.881919   3.905628   6.304352   2.451307
    17  H    1.072250   2.143063   5.942784   4.942711   4.919446
    18  Cl   2.660966   1.758239   5.346502   2.519919   4.980072
    19  Cl   7.243835   5.844177   5.611080   2.837484   6.561144
    20  Cl   2.736801   4.050699   6.278771   7.079779   4.866401
    21  Cl   8.510134   7.191344   4.878091   4.865978   6.268741
    22  Cl   7.628796   6.615535   2.853479   5.609509   4.274084
                   16         17         18         19         20
    16  H    0.000000
    17  H    4.263781   0.000000
    18  Cl   5.631827   2.733481   0.000000
    19  Cl   8.666593   7.778861   5.251491   0.000000
    20  Cl   2.873880   2.862731   5.368287   9.835249   0.000000
    21  Cl   8.705073   9.330059   7.326923   3.164412  10.669334
    22  Cl   6.630491   8.640559   7.493550   5.468732   9.127864
                   21         22
    21  Cl   0.000000
    22  Cl   3.167662   0.000000
 Stoichiometry    C12H5Cl5
 Framework group  C1[X(C12H5Cl5)]
 Deg. of freedom    60
 Full point group                 C1      NOp   1
 Largest Abelian subgroup         C1      NOp   1
 Largest concise Abelian subgroup C1      NOp   1
                         Standard orientation:                         
 ---------------------------------------------------------------------
 Center     Atomic      Atomic             Coordinates (Angstroms)
 Number     Number       Type             X           Y           Z
 ---------------------------------------------------------------------
      1          6           0       -0.152962   -0.023361    0.000002
      2          6           0       -0.802914   -1.268825    0.000001
      3          6           0       -2.197639   -1.359335   -0.000000
      4          6           0       -2.975037   -0.198786   -0.000001
      5          6           0       -2.342958    1.047439    0.000002
      6          6           0       -0.945684    1.136272    0.000003
      7          6           0        1.404978   -0.073975    0.000003
      8          6           0        1.921843   -1.381890    0.000004
      9          6           0        3.294188   -1.635683    0.000004
     10          6           0        4.192781   -0.573812    0.000002
     11          6           0        3.716350    0.735824   -0.000000
     12          6           0        2.340662    1.007176   -0.000000
     13          1           0       -0.221405   -2.168847    0.000000
     14          1           0       -0.498599    2.097137    0.000005
     15          1           0        1.242595   -2.210659    0.000004
     16          1           0        3.655033   -2.645456    0.000006
     17          1           0        4.413767    1.550274   -0.000005
     18         17           0        1.943156    2.719891   -0.000006
     19         17           0       -3.304502    2.519301    0.000005
     20         17           0        5.924013   -0.881677   -0.000001
     21         17           0       -4.729777   -0.305959   -0.000003
     22         17           0       -2.968951   -2.939127   -0.000002
 ---------------------------------------------------------------------
 Rotational constants (GHZ):           0.5130756           0.1345662           0.1066062
 Standard basis: 6-311+G(d,p) (5D, 7F)
 There are   461 symmetry adapted cartesian basis functions of A   symmetry.
 There are   444 symmetry adapted basis functions of A   symmetry.
   444 basis functions,   737 primitive gaussians,   461 cartesian basis functions
    81 alpha electrons       81 beta electrons
       nuclear repulsion energy      1653.3096074416 Hartrees.
 NAtoms=   22 NActive=   22 NUniq=   22 SFac= 1.00D+00 NAtFMM=   60 NAOKFM=F Big=F
 Integral buffers will be    131072 words long.
 Raffenetti 2 integral format.
 Two-electron integral symmetry is turned on.
 One-electron integrals computed using PRISM.
 NBasis=   444 RedAO= T EigKep=  1.24D-06  NBF=   444
 NBsUse=   438 1.00D-06 EigRej=  8.63D-07 NBFU=   438
 Initial guess from the checkpoint file:  "./Gau-153814.chk"
 B after Tr=    -0.000000   -0.000000   -0.000000
         Rot=    0.999999    0.000000    0.000000    0.001287 Ang=   0.15 deg.
 ExpMin= 4.38D-02 ExpMax= 1.06D+05 ExpMxC= 3.62D+03 IAcc=3 IRadAn=         5 AccDes= 0.00D+00
 Harris functional with IExCor=  402 and IRadAn=       5 diagonalized for initial guess.
 HarFok:  IExCor=  402 AccDes= 0.00D+00 IRadAn=         5 IDoV= 1 UseB2=F ITyADJ=14
 ICtDFT=  3500011 ScaDFX=  1.000000  1.000000  1.000000  1.000000
 FoFCou: FMM=F IPFlag=           0 FMFlag=      100000 FMFlg1=           0
         NFxFlg=           0 DoJE=T BraDBF=F KetDBF=T FulRan=T
         wScrn=  0.000000 ICntrl=       500 IOpCl=  0 I1Cent=   200000004 NGrid=           0
         NMat0=    1 NMatS0=      1 NMatT0=    0 NMatD0=    1 NMtDS0=    0 NMtDT0=    0
 Petite list used in FoFCou.
 Requested convergence on RMS density matrix=1.00D-08 within  32 cycles.
 Requested convergence on MAX density matrix=1.00D-06.
 Requested convergence on             energy=1.00D-06.
 No special actions if energy rises.
 SCF Done:  E(RB3LYP) =  -2761.49684556     A.U. after   17 cycles
            NFock= 17  Conv=0.60D-08     -V/T= 2.0028
 QCSCF skips out because SCF is already converged.
 Calling FoFJK, ICntrl=      2127 FMM=F ISym2X=0 I1Cent= 0 IOpClX= 0 NMat=1 NMatS=1 NMatT=0.
 ***** Axes restored to original set *****
 -------------------------------------------------------------------
 Center     Atomic                   Forces (Hartrees/Bohr)
 Number     Number              X              Y              Z
 -------------------------------------------------------------------
      1        6          -0.011407689   -0.018375239    0.000307213
      2        6           0.004366837    0.019811462    0.002282233
      3        6          -0.003959469   -0.007541527   -0.000111799
      4        6           0.007727892    0.013118856   -0.000082333
      5        6          -0.003053978   -0.004580505    0.000145905
      6        6           0.012876429   -0.001900223   -0.004599024
      7        6           0.009000513    0.028338856    0.002357168
      8        6          -0.026609125   -0.016110275    0.005740958
      9        6           0.000724672    0.006607735    0.001002175
     10        6           0.001620987    0.007376777    0.000851441
     11        6           0.005530049    0.000246113   -0.001775552
     12        6           0.015839266   -0.011447058   -0.007368294
     13        1           0.010316382    0.008985557   -0.001711246
     14        1          -0.012225356    0.002454269    0.004488599
     15        1          -0.003202325   -0.011190073   -0.001046728
     16        1           0.004016093   -0.005616916   -0.002378001
     17        1          -0.006467522   -0.000081319    0.002115421
     18       17           0.005331270    0.002148268   -0.001352988
     19       17          -0.000815851   -0.007438682   -0.001128226
     20       17           0.001124373    0.004180058    0.000414564
     21       17          -0.004535099   -0.006267262    0.000317073
     22       17          -0.006198347   -0.002718872    0.001531441
 -------------------------------------------------------------------
 Cartesian Forces:  Max     0.028338856 RMS     0.008433518

 GradGradGradGradGradGradGradGradGradGradGradGradGradGradGradGradGradGrad
 Berny optimization.
 Using GEDIIS/GDIIS optimizer.
 FormGI is forming the generalized inverse of G from B-inverse, IUseBI=4.
 Internal  Forces:  Max     0.063228780 RMS     0.011456984
 Search for a local minimum.
 Step number   2 out of a maximum of  121
 All quantities printed in internal units (Hartrees-Bohrs-Radians)
 Mixed Optimization -- RFO/linear search
 Update second derivatives using D2CorX and points    1    2
 DE= -3.87D-02 DEPred=-1.46D-01 R= 2.66D-01
 Trust test= 2.66D-01 RLast= 3.00D-01 DXMaxT set to 3.00D-01
 ITU=  0  0
 Use linear search instead of GDIIS.
     Eigenvalues ---    0.00237   0.01478   0.01485   0.02070   0.02070
     Eigenvalues ---    0.02070   0.02070   0.02070   0.02070   0.02070
     Eigenvalues ---    0.02070   0.02070   0.02070   0.02070   0.02070
     Eigenvalues ---    0.02070   0.02070   0.02070   0.02070   0.15963
     Eigenvalues ---    0.16000   0.16000   0.16000   0.16035   0.22391
     Eigenvalues ---    0.23424   0.23478   0.23506   0.24419   0.24856
     Eigenvalues ---    0.25000   0.25000   0.25000   0.25000   0.25000
     Eigenvalues ---    0.25000   0.28455   0.29519   0.29539   0.29539
     Eigenvalues ---    0.29539   0.29539   0.37089   0.37211   0.37230
     Eigenvalues ---    0.37230   0.37230   0.40551   0.41302   0.41464
     Eigenvalues ---    0.41789   0.45049   0.45322   0.45389   0.45389
     Eigenvalues ---    0.45389   0.45389   0.45389   0.45389   2.07067
 RFO step:  Lambda=-1.43365565D-02 EMin= 2.36824243D-03
 Quartic linear search produced a step of -0.32187.
 Iteration  1 RMS(Cart)=  0.15489205 RMS(Int)=  0.00497230
 Iteration  2 RMS(Cart)=  0.00852750 RMS(Int)=  0.00005754
 Iteration  3 RMS(Cart)=  0.00002168 RMS(Int)=  0.00005720
 Iteration  4 RMS(Cart)=  0.00000000 RMS(Int)=  0.00005720
 Variable       Old X    -DE/DX   Delta X   Delta X   Delta X     New X
                                 (Linear)    (Quad)   (Total)
    R1        2.65479   0.00775  -0.00210   0.01710   0.01502   2.66981
    R2        2.65448  -0.00396  -0.00200  -0.00057  -0.00252   2.65196
    R3        2.94563  -0.00742  -0.01141   0.01157   0.00016   2.94579
    R4        2.64119  -0.00942   0.00228  -0.01925  -0.01700   2.62419
    R5        2.02491  -0.00382  -0.00094  -0.00426  -0.00519   2.01972
    R6        2.63969  -0.00048   0.00276  -0.00788  -0.00517   2.63452
    R7        3.32219  -0.00606   0.00120  -0.01625  -0.01505   3.30714
    R8        2.64062  -0.00308   0.00246  -0.01129  -0.00885   2.63176
    R9        3.32216  -0.00774   0.00121  -0.01996  -0.01875   3.30341
   R10        2.64580  -0.00943   0.00079  -0.01622  -0.01539   2.63040
   R11        3.32234  -0.00666   0.00115  -0.01745  -0.01630   3.30604
   R12        2.00271   0.01322   0.00621   0.00701   0.01322   2.01593
   R13        2.65760   0.00895  -0.00300   0.02106   0.01814   2.67574
   R14        2.70197  -0.01790  -0.01729   0.01983   0.00267   2.70464
   R15        2.63733  -0.00640   0.00352  -0.01809  -0.01461   2.62272
   R16        2.02495  -0.00419  -0.00095  -0.00488  -0.00583   2.01912
   R17        2.62872  -0.00623   0.00629  -0.02539  -0.01923   2.60948
   R18        2.02637   0.00730  -0.00141   0.01645   0.01504   2.04142
   R19        2.63353  -0.01037   0.00474  -0.02778  -0.02314   2.61039
   R20        3.32288  -0.00429   0.00098  -0.01183  -0.01085   3.31203
   R21        2.64976  -0.00797  -0.00048  -0.01080  -0.01125   2.63851
   R22        2.02626   0.00674  -0.00137   0.01536   0.01399   2.04025
   R23        3.32259  -0.00235   0.00107  -0.00783  -0.00675   3.31584
    A1        2.06098  -0.01160   0.01075  -0.05588  -0.04505   2.01593
    A2        2.01930   0.05477   0.02417   0.08207   0.10621   2.12551
    A3        2.20291  -0.04317  -0.03493  -0.02620  -0.06116   2.14175
    A4        2.11658   0.00272  -0.00714   0.02559   0.01844   2.13502
    A5        2.08698   0.01205   0.00239   0.04182   0.04421   2.13119
    A6        2.07963  -0.01478   0.00475  -0.06741  -0.06265   2.01697
    A7        2.09620   0.00575  -0.00058   0.01680   0.01614   2.11234
    A8        2.08979  -0.00850   0.00148  -0.02568  -0.02416   2.06564
    A9        2.09719   0.00275  -0.00090   0.00888   0.00802   2.10521
   A10        2.08200  -0.00858   0.00399  -0.03229  -0.02838   2.05362
   A11        2.10000   0.00416  -0.00180   0.01537   0.01360   2.11360
   A12        2.10118   0.00441  -0.00219   0.01693   0.01478   2.11596
   A13        2.10367   0.00356  -0.00299   0.01454   0.01156   2.11523
   A14        2.09352   0.00418   0.00028   0.01093   0.01120   2.10473
   A15        2.08599  -0.00774   0.00271  -0.02546  -0.02276   2.06322
   A16        2.10694   0.00815  -0.00404   0.03124   0.02728   2.13422
   A17        2.10646  -0.00314  -0.00388   0.00049  -0.00343   2.10303
   A18        2.06979  -0.00501   0.00792  -0.03173  -0.02385   2.04594
   A19        1.97962   0.06323   0.03694   0.07290   0.10973   2.08935
   A20        2.25172  -0.04597  -0.05064   0.00454  -0.04622   2.20550
   A21        2.05185  -0.01725   0.01369  -0.07744  -0.06351   1.98834
   A22        2.13001   0.00702  -0.01146   0.04869   0.03729   2.16730
   A23        2.07868   0.00754   0.00506   0.01999   0.02502   2.10369
   A24        2.07450  -0.01455   0.00640  -0.06868  -0.06230   2.01219
   A25        2.09023  -0.00200   0.00134  -0.00690  -0.00573   2.08450
   A26        2.09687   0.00100  -0.00080   0.00370   0.00299   2.09986
   A27        2.09608   0.00101  -0.00054   0.00319   0.00274   2.09882
   A28        2.09038  -0.00008   0.00129  -0.00281  -0.00175   2.08863
   A29        2.09711   0.00119  -0.00087   0.00492   0.00416   2.10127
   A30        2.09569  -0.00112  -0.00042  -0.00211  -0.00241   2.09328
   A31        2.11445  -0.00439  -0.00646   0.00105  -0.00546   2.10899
   A32        2.08454   0.00317   0.00317   0.00338   0.00658   2.09113
   A33        2.08419   0.00122   0.00328  -0.00444  -0.00112   2.08307
   A34        2.08945   0.01670   0.00159   0.03740   0.03916   2.12861
   A35        2.20014  -0.01735  -0.03404   0.03850   0.00438   2.20452
   A36        1.99360   0.00064   0.03244  -0.07590  -0.04354   1.95005
    D1        0.00000  -0.00000  -0.00000  -0.00000  -0.00000   0.00000
    D2        3.14159  -0.00000  -0.00000  -0.00000  -0.00000   3.14159
    D3       -3.14159  -0.00000   0.00000  -0.00000  -0.00000  -3.14159
    D4       -0.00000  -0.00000   0.00000   0.00000   0.00000  -0.00000
    D5       -0.00000   0.00000   0.00000   0.00000   0.00000  -0.00000
    D6        3.14159   0.00000   0.00000   0.00000   0.00000   3.14159
    D7        3.14159  -0.00000  -0.00000   0.00000   0.00000   3.14159
    D8        0.00000  -0.00000   0.00000  -0.00000  -0.00000  -0.00000
    D9       -0.00000  -0.00000   0.00000  -0.00000  -0.00000  -0.00000
   D10        3.14159  -0.00000   0.00000  -0.00000  -0.00000   3.14159
   D11        3.14159  -0.00000   0.00000  -0.00000  -0.00000   3.14159
   D12       -0.00000  -0.00000   0.00000   0.00000   0.00000  -0.00000
   D13        0.00000  -0.00000   0.00000  -0.00000  -0.00000   0.00000
   D14        3.14159   0.00000   0.00000   0.00000   0.00000   3.14159
   D15       -3.14159  -0.00000   0.00000  -0.00000  -0.00000  -3.14159
   D16        0.00000  -0.00000   0.00000  -0.00000  -0.00000   0.00000
   D17       -0.00000   0.00000  -0.00000   0.00000   0.00000  -0.00000
   D18        3.14159  -0.00000  -0.00000  -0.00000  -0.00000   3.14159
   D19        3.14159   0.00000   0.00000   0.00000   0.00000   3.14159
   D20        0.00000  -0.00000   0.00000  -0.00000  -0.00000   0.00000
   D21        0.00000  -0.00000  -0.00000  -0.00000  -0.00000   0.00000
   D22       -3.14159  -0.00000  -0.00000  -0.00000  -0.00000  -3.14159
   D23       -3.14159   0.00000   0.00000   0.00000   0.00000  -3.14159
   D24        0.00000  -0.00000  -0.00000   0.00000  -0.00000   0.00000
   D25       -0.00000  -0.00000  -0.00000   0.00000   0.00000  -0.00000
   D26        3.14159   0.00000  -0.00000   0.00000   0.00000   3.14159
   D27        3.14159   0.00000   0.00000   0.00000   0.00000   3.14159
   D28       -0.00000   0.00000  -0.00000   0.00000   0.00000  -0.00000
   D29        3.14159  -0.00000  -0.00000   0.00000   0.00000  -3.14159
   D30        0.00000  -0.00000  -0.00000  -0.00000  -0.00000   0.00000
   D31        0.00000  -0.00000  -0.00000  -0.00000  -0.00000   0.00000
   D32       -3.14159  -0.00000   0.00000  -0.00000  -0.00000  -3.14159
   D33       -3.14159  -0.00000  -0.00000  -0.00000  -0.00000   3.14159
   D34        0.00000  -0.00000   0.00000  -0.00000  -0.00000  -0.00000
   D35       -0.00000   0.00000   0.00000   0.00000   0.00000  -0.00000
   D36        3.14159   0.00000   0.00000   0.00000   0.00000   3.14159
   D37       -0.00000  -0.00000   0.00000   0.00000   0.00000  -0.00000
   D38        3.14159  -0.00000   0.00000  -0.00000  -0.00000   3.14159
   D39        3.14159   0.00000  -0.00000   0.00000   0.00000   3.14159
   D40       -0.00000   0.00000  -0.00000   0.00000   0.00000  -0.00000
   D41       -0.00000   0.00000   0.00000   0.00000   0.00000   0.00000
   D42       -3.14159  -0.00000   0.00000  -0.00000  -0.00000  -3.14159
   D43        3.14159   0.00000  -0.00000   0.00000   0.00000  -3.14159
   D44        0.00000  -0.00000   0.00000  -0.00000  -0.00000   0.00000
   D45        0.00000   0.00000  -0.00000  -0.00000  -0.00000  -0.00000
   D46       -3.14159  -0.00000  -0.00000  -0.00000  -0.00000  -3.14159
   D47        3.14159   0.00000  -0.00000   0.00000   0.00000   3.14159
   D48        0.00000  -0.00000  -0.00000  -0.00000  -0.00000   0.00000
   D49        0.00000  -0.00000  -0.00000  -0.00000  -0.00000   0.00000
   D50       -3.14159  -0.00000  -0.00000  -0.00000  -0.00000  -3.14159
   D51        3.14159   0.00000  -0.00000   0.00000   0.00000   3.14159
   D52       -0.00000   0.00000  -0.00000   0.00000   0.00000  -0.00000
         Item               Value     Threshold  Converged?
 Maximum Force            0.063229     0.000450     NO 
 RMS     Force            0.011457     0.000300     NO 
 Maximum Displacement     0.566965     0.001800     NO 
 RMS     Displacement     0.156535     0.001200     NO 
 Predicted change in Energy=-9.672516D-03
 GradGradGradGradGradGradGradGradGradGradGradGradGradGradGradGradGradGrad

                          Input orientation:                          
 ---------------------------------------------------------------------
 Center     Atomic      Atomic             Coordinates (Angstroms)
 Number     Number       Type             X           Y           Z
 ---------------------------------------------------------------------
      1          6           0       -0.409848   -0.309612   -0.000626
      2          6           0        0.933642   -0.271159   -0.436023
      3          6           0        1.673449    0.903801   -0.459088
      4          6           0        1.114645    2.113032   -0.047884
      5          6           0       -0.208779    2.099517    0.385585
      6          6           0       -0.948151    0.920382    0.407722
      7          6           0       -1.228593   -1.635970    0.020012
      8          6           0       -0.621644   -2.842045   -0.406465
[...]
       Virtual   (A) (A) (A) (A) (A) (A) (A) (A) (A) (A) (A) (A)
                 (A) (A) (A) (A) (A) (A) (A) (A) (A) (A) (A) (A)
                 (A) (A) (A) (A) (A) (A) (A) (A) (A) (A) (A) (A)
                 (A) (A) (A) (A) (A) (A) (A) (A) (A) (A) (A) (A)
                 (A) (A) (A) (A) (A) (A) (A) (A) (A) (A) (A) (A)
                 (A) (A) (A) (A) (A) (A) (A) (A) (A) (A) (A) (A)
                 (A) (A) (A) (A) (A) (A) (A) (A) (A) (A) (A) (A)
                 (A) (A) (A) (A) (A) (A) (A) (A) (A) (A) (A) (A)
                 (A) (A) (A) (A) (A) (A) (A) (A) (A) (A) (A) (A)
                 (A) (A) (A) (A) (A) (A) (A) (A) (A) (A) (A) (A)
                 (A) (A) (A) (A) (A) (A) (A) (A) (A) (A) (A) (A)
                 (A) (A) (A) (A) (A) (A) (A) (A) (A) (A) (A) (A)
                 (A) (A) (A) (A) (A) (A) (A) (A) (A) (A) (A) (A)
                 (A) (A) (A) (A) (A) (A) (A) (A) (A) (A) (A) (A)
                 (A) (A) (A) (A) (A) (A) (A) (A) (A) (A) (A) (A)
                 (A) (A) (A) (A) (A) (A) (A) (A) (A) (A) (A) (A)
                 (A) (A) (A) (A) (A) (A) (A) (A) (A) (A) (A) (A)
                 (A) (A) (A) (A) (A) (A) (A) (A) (A) (A) (A) (A)
                 (A) (A) (A) (A) (A) (A) (A) (A) (A) (A) (A) (A)
                 (A) (A) (A) (A) (A) (A) (A) (A) (A) (A) (A) (A)
                 (A) (A) (A) (A) (A) (A) (A) (A) (A) (A) (A) (A)
                 (A) (A) (A) (A) (A) (A) (A) (A) (A) (A) (A) (A)
                 (A) (A) (A) (A) (A) (A) (A) (A) (A) (A) (A) (A)
                 (A) (A) (A) (A) (A) (A) (A) (A) (A) (A) (A) (A)
                 (A) (A) (A) (A) (A) (A) (A) (A) (A) (A) (A) (A)
                 (A) (A) (A) (A) (A) (A) (A) (A) (A) (A) (A) (A)
                 (A) (A) (A) (A) (A) (A) (A) (A) (A) (A) (A) (A)
                 (A) (A) (A) (A) (A) (A) (A) (A) (A) (A) (A) (A)
                 (A) (A) (A) (A) (A) (A) (A) (A) (A) (A) (A) (A)
                 (A) (A) (A) (A) (A) (A) (A) (A) (A) (A) (A) (A)
 The electronic state is 1-A.
 Alpha  occ. eigenvalues -- -101.57558-101.57472-101.57370-101.57359-101.57324
 Alpha  occ. eigenvalues --  -10.27394 -10.27164 -10.27118 -10.26985 -10.26626
 Alpha  occ. eigenvalues --  -10.22863 -10.22775 -10.21721 -10.21617 -10.21515
 Alpha  occ. eigenvalues --  -10.21426 -10.21278  -9.49018  -9.48930  -9.48843
 Alpha  occ. eigenvalues --   -9.48817  -9.48779  -7.25517  -7.25417  -7.25311
 Alpha  occ. eigenvalues --   -7.25304  -7.25247  -7.24501  -7.24418  -7.24410
 Alpha  occ. eigenvalues --   -7.24350  -7.24328  -7.24297  -7.24276  -7.24260
 Alpha  occ. eigenvalues --   -7.24236  -7.24221  -0.94982  -0.93298  -0.89826
 Alpha  occ. eigenvalues --   -0.89692  -0.87758  -0.86076  -0.84507  -0.79144
 Alpha  occ. eigenvalues --   -0.77324  -0.76184  -0.74070  -0.65688  -0.64801
 Alpha  occ. eigenvalues --   -0.63520  -0.61051  -0.55591  -0.53524  -0.52498
 Alpha  occ. eigenvalues --   -0.51330  -0.49628  -0.48180  -0.46486  -0.46385
 Alpha  occ. eigenvalues --   -0.46294  -0.44966  -0.43501  -0.42994  -0.41061
 Alpha  occ. eigenvalues --   -0.40181  -0.39894  -0.38533  -0.38310  -0.36459
 Alpha  occ. eigenvalues --   -0.35066  -0.34821  -0.34180  -0.33983  -0.33684
 Alpha  occ. eigenvalues --   -0.33251  -0.31841  -0.28715  -0.28058  -0.27241
 Alpha  occ. eigenvalues --   -0.26027
 Alpha virt. eigenvalues --   -0.06844  -0.05724  -0.04926  -0.03611  -0.03405
 Alpha virt. eigenvalues --   -0.01893  -0.00848   0.00649   0.01073   0.01456
 Alpha virt. eigenvalues --    0.01731   0.02237   0.02445   0.03323   0.03758
 Alpha virt. eigenvalues --    0.04355   0.04545   0.04912   0.06100   0.06532
 Alpha virt. eigenvalues --    0.06948   0.07022   0.07610   0.07927   0.08569
 Alpha virt. eigenvalues --    0.08737   0.08879   0.09423   0.09602   0.10175
 Alpha virt. eigenvalues --    0.10569   0.11078   0.11193   0.11607   0.11642
 Alpha virt. eigenvalues --    0.12126   0.12373   0.12632   0.13324   0.13391
 Alpha virt. eigenvalues --    0.14278   0.14523   0.15152   0.15387   0.15692
 Alpha virt. eigenvalues --    0.15976   0.16266   0.16534   0.17098   0.17329
 Alpha virt. eigenvalues --    0.17799   0.17870   0.18512   0.18773   0.19161
 Alpha virt. eigenvalues --    0.19452   0.19797   0.19991   0.20230   0.20898
 Alpha virt. eigenvalues --    0.21587   0.22052   0.22443   0.23305   0.23504
 Alpha virt. eigenvalues --    0.23744   0.24268   0.24365   0.24607   0.25090
 Alpha virt. eigenvalues --    0.25748   0.25796   0.26333   0.26996   0.27156
 Alpha virt. eigenvalues --    0.27293   0.27876   0.28310   0.28585   0.28640
 Alpha virt. eigenvalues --    0.28979   0.29720   0.29796   0.30371   0.31176
 Alpha virt. eigenvalues --    0.31488   0.33008   0.33182   0.34082   0.36010
 Alpha virt. eigenvalues --    0.40740   0.41903   0.42317   0.43019   0.43497
 Alpha virt. eigenvalues --    0.44466   0.44876   0.45460   0.45599   0.46217
 Alpha virt. eigenvalues --    0.46561   0.47206   0.47265   0.47787   0.48452
 Alpha virt. eigenvalues --    0.48702   0.49372   0.50199   0.50578   0.53030
 Alpha virt. eigenvalues --    0.55020   0.55407   0.55629   0.56286   0.56837
 Alpha virt. eigenvalues --    0.57369   0.58082   0.58385   0.59958   0.59962
 Alpha virt. eigenvalues --    0.61246   0.61479   0.61961   0.62413   0.63497
 Alpha virt. eigenvalues --    0.63630   0.64998   0.65205   0.66702   0.67622
 Alpha virt. eigenvalues --    0.68031   0.68357   0.69092   0.69197   0.70002
 Alpha virt. eigenvalues --    0.70567   0.71388   0.72253   0.74008   0.76598
 Alpha virt. eigenvalues --    0.79224   0.81259   0.81933   0.82703   0.82765
 Alpha virt. eigenvalues --    0.83006   0.83403   0.84056   0.84220   0.84745
 Alpha virt. eigenvalues --    0.84816   0.84929   0.85103   0.85491   0.85655
 Alpha virt. eigenvalues --    0.86042   0.86785   0.87395   0.87953   0.88270
 Alpha virt. eigenvalues --    0.89100   0.89693   0.90342   0.91139   0.91745
 Alpha virt. eigenvalues --    0.92185   0.93482   0.93893   0.94026   0.94437
 Alpha virt. eigenvalues --    0.95179   0.96035   0.96333   0.97213   0.97476
 Alpha virt. eigenvalues --    0.99526   1.00188   1.01232   1.02989   1.03272
 Alpha virt. eigenvalues --    1.04721   1.06594   1.08973   1.10532   1.11804
 Alpha virt. eigenvalues --    1.12590   1.13412   1.17842   1.21192   1.22091
 Alpha virt. eigenvalues --    1.22877   1.23194   1.24071   1.24140   1.25917
 Alpha virt. eigenvalues --    1.27186   1.28255   1.29763   1.30105   1.31739
 Alpha virt. eigenvalues --    1.33938   1.34678   1.36402   1.41327   1.44460
 Alpha virt. eigenvalues --    1.48903   1.49690   1.50084   1.51456   1.53757
 Alpha virt. eigenvalues --    1.54662   1.55964   1.58475   1.59652   1.59977
 Alpha virt. eigenvalues --    1.61996   1.64133   1.64878   1.67802   1.68130
 Alpha virt. eigenvalues --    1.71588   1.71851   1.75620   1.78200   1.79126
 Alpha virt. eigenvalues --    1.81223   1.82598   1.85641   1.87329   1.88776
 Alpha virt. eigenvalues --    1.89228   1.90694   1.91545   1.93177   1.93720
 Alpha virt. eigenvalues --    1.95023   1.95290   1.95971   1.96996   1.99839
 Alpha virt. eigenvalues --    2.01632   2.04160   2.07204   2.08054   2.09650
 Alpha virt. eigenvalues --    2.13232   2.15666   2.21615   2.22923   2.23448
 Alpha virt. eigenvalues --    2.25690   2.26029   2.26972   2.27235   2.28035
 Alpha virt. eigenvalues --    2.29638   2.30073   2.31583   2.33166   2.35290
 Alpha virt. eigenvalues --    2.38775   2.40546   2.41561   2.43174   2.44413
 Alpha virt. eigenvalues --    2.48188   2.49521   2.51340   2.52854   2.54429
 Alpha virt. eigenvalues --    2.54945   2.55210   2.58725   2.61433   2.63986
 Alpha virt. eigenvalues --    2.64626   2.67455   2.68519   2.70818   2.71257
 Alpha virt. eigenvalues --    2.72322   2.73293   2.74798   2.75139   2.77430
 Alpha virt. eigenvalues --    2.77658   2.78341   2.80790   2.83060   2.83341
 Alpha virt. eigenvalues --    2.83804   2.88438   2.90851   2.97455   2.98313
 Alpha virt. eigenvalues --    3.05958   3.07444   3.08118   3.12561   3.13762
 Alpha virt. eigenvalues --    3.14396   3.16472   3.20551   3.21405   3.23290
 Alpha virt. eigenvalues --    3.31808   3.35697   3.39883   3.44143   3.52746
 Alpha virt. eigenvalues --    3.58296   3.66650   3.70414   3.71603   3.79363
 Alpha virt. eigenvalues --    3.85218   3.99538   4.05328   4.08042   4.11989
 Alpha virt. eigenvalues --    4.36992   4.79785   4.82197   9.73907   9.76195
 Alpha virt. eigenvalues --    9.79099   9.80115   9.80891  23.37645  23.53851
 Alpha virt. eigenvalues --   23.83590  23.85563  23.87573  23.91454  23.94611
 Alpha virt. eigenvalues --   24.01043  24.03454  24.04773  24.11302  24.14024
 Alpha virt. eigenvalues --   25.77218  25.81545  25.81672  25.87352  25.89282
 Alpha virt. eigenvalues --   26.08690  26.09991  26.10996  26.16416  26.25212
 Alpha virt. eigenvalues --   26.46290  26.57863  26.62763  26.71348  26.84735
 Alpha virt. eigenvalues --  215.72768 215.75164 215.78628 215.79882 215.80714
          Condensed to atoms (all electrons):
               1          2          3          4          5          6
     1  C   35.983612   0.911623  -8.860952  -1.881782  -7.461427  -0.940736
     2  C    0.911623  29.937729  -3.372419  -2.402700  -3.358683 -11.736487
     3  C   -8.860952  -3.372419  24.271758  -5.178965  -2.375551  -2.363338
     4  C   -1.881782  -2.402700  -5.178965  27.026848  -4.375177  -2.651676
     5  C   -7.461427  -3.358683  -2.375551  -4.375177  23.062708  -3.288425
     6  C   -0.940736 -11.736487  -2.363338  -2.651676  -3.288425  31.587902
     7  C   -5.712389  -4.024166   4.813717  -3.640010   3.363697  -4.432365
     8  C    9.207245   6.480839  -4.132323   2.988765  -3.991362   2.156800
     9  C   -1.690527  -0.419009   0.069237  -0.081440   0.231570   0.164991
    10  C   -0.027778   0.311405  -0.029044   0.034531  -0.062183  -0.047113
    11  C   -1.859800  -0.642917   0.869436  -0.579127   0.751345  -0.394902
    12  C  -11.360447  -5.560413   3.502184  -2.731634   4.482318  -1.370557
    13  H    0.037243   0.304157  -0.022127  -0.008322   0.000685  -0.000213
    14  H   -0.000475  -0.006096   0.025934  -0.058764   0.029157   0.267596
    15  H    0.016867   0.113337   0.000450   0.002971  -0.016877  -0.046441
    16  H    0.022664   0.003560  -0.002007   0.000559  -0.000995   0.000209
    17  H    0.023857   0.002963  -0.000792   0.000365  -0.001489  -0.002381
    18  Cl  -0.210480  -0.151652  -0.232356   0.066127   0.114088   0.219858
    19  Cl  -0.573470   0.016763   0.087438  -0.291846  -0.100430   0.029568
    20  Cl  -0.038346   0.013363   0.006685  -0.002073   0.002034  -0.010454
    21  Cl   0.195597   0.348933  -0.644812   0.027660  -0.617016   0.147907
    22  Cl  -0.455973   0.128962  -0.206915  -0.286997   0.036449   0.144332
               7          8          9         10         11         12
     1  C   -5.712389   9.207245  -1.690527  -0.027778  -1.859800 -11.360447
     2  C   -4.024166   6.480839  -0.419009   0.311405  -0.642917  -5.560413
     3  C    4.813717  -4.132323   0.069237  -0.029044   0.869436   3.502184
     4  C   -3.640010   2.988765  -0.081440   0.034531  -0.579127  -2.731634
     5  C    3.363697  -3.991362   0.231570  -0.062183   0.751345   4.482318
     6  C   -4.432365   2.156800   0.164991  -0.047113  -0.394902  -1.370557
     7  C   34.734537 -14.581673   0.042521  -6.052174   4.264966  -1.809385
     8  C  -14.581673  29.376597  -4.651166   0.513930  -2.891291 -14.003529
     9  C    0.042521  -4.651166  19.720535  -2.314716  -8.478084   3.152005
    10  C   -6.052174   0.513930  -2.314716  16.393685  -2.422840  -0.269204
    11  C    4.264966  -2.891291  -8.478084  -2.422840  30.752555 -11.447720
    12  C   -1.809385 -14.003529   3.152005  -0.269204 -11.447720  41.746545
    13  H    0.035938  -0.011627  -0.005649  -0.003386   0.018009   0.009192
    14  H    0.033207  -0.078981   0.005945  -0.000173   0.008972   0.120856
    15  H   -0.098760   0.515563  -0.099432   0.037732  -0.031642  -0.048709
    16  H   -0.037460   0.006420   0.237344   0.087412   0.049591  -0.009425
    17  H    0.079057   0.022814   0.031110   0.032847   0.103290   0.062656
    18  Cl  -1.363780  -0.263912   0.300102   0.048600  -1.059449   1.522672
    19  Cl   0.031960  -0.072516  -0.004320   0.005175   0.038759   0.121860
    20  Cl  -0.140402   0.099256   0.316825  -1.165481   0.187410   0.017495
    21  Cl  -0.185424   0.116091   0.000542   0.002462  -0.021821  -0.119848
    22  Cl  -0.021685  -0.004475   0.026304  -0.000834   0.015400  -0.019930
              13         14         15         16         17         18
     1  C    0.037243  -0.000475   0.016867   0.022664   0.023857  -0.210480
     2  C    0.304157  -0.006096   0.113337   0.003560   0.002963  -0.151652
     3  C   -0.022127   0.025934   0.000450  -0.002007  -0.000792  -0.232356
     4  C   -0.008322  -0.058764   0.002971   0.000559   0.000365   0.066127
     5  C    0.000685   0.029157  -0.016877  -0.000995  -0.001489   0.114088
     6  C   -0.000213   0.267596  -0.046441   0.000209  -0.002381   0.219858
     7  C    0.035938   0.033207  -0.098760  -0.037460   0.079057  -1.363780
     8  C   -0.011627  -0.078981   0.515563   0.006420   0.022814  -0.263912
     9  C   -0.005649   0.005945  -0.099432   0.237344   0.031110   0.300102
    10  C   -0.003386  -0.000173   0.037732   0.087412   0.032847   0.048600
    11  C    0.018009   0.008972  -0.031642   0.049591   0.103290  -1.059449
    12  C    0.009192   0.120856  -0.048709  -0.009425   0.062656   1.522672
    13  H    0.502700  -0.000175  -0.000494   0.000015   0.000001  -0.002244
    14  H   -0.000175   0.497149  -0.000012   0.000001   0.000011  -0.001317
    15  H   -0.000494  -0.000012   0.519406  -0.007301   0.000043  -0.001516
    16  H    0.000015   0.000001  -0.007301   0.508698  -0.000242   0.000880
    17  H    0.000001   0.000011   0.000043  -0.000242   0.493720  -0.008945
    18  Cl  -0.002244  -0.001317  -0.001516   0.000880  -0.008945  17.669585
    19  Cl   0.000661  -0.000856  -0.000102  -0.000003  -0.000025   0.003926
    20  Cl  -0.000089  -0.000089   0.000410  -0.014199  -0.013064  -0.029080
    21  Cl  -0.000466  -0.001272  -0.000098   0.000001   0.000001   0.009956
    22  Cl  -0.004239   0.000693   0.000405  -0.000008  -0.000004  -0.007906
              19         20         21         22
     1  C   -0.573470  -0.038346   0.195597  -0.455973
     2  C    0.016763   0.013363   0.348933   0.128962
     3  C    0.087438   0.006685  -0.644812  -0.206915
     4  C   -0.291846  -0.002073   0.027660  -0.286997
     5  C   -0.100430   0.002034  -0.617016   0.036449
     6  C    0.029568  -0.010454   0.147907   0.144332
     7  C    0.031960  -0.140402  -0.185424  -0.021685
     8  C   -0.072516   0.099256   0.116091  -0.004475
     9  C   -0.004320   0.316825   0.000542   0.026304
    10  C    0.005175  -1.165481   0.002462  -0.000834
    11  C    0.038759   0.187410  -0.021821   0.015400
    12  C    0.121860   0.017495  -0.119848  -0.019930
    13  H    0.000661  -0.000089  -0.000466  -0.004239
    14  H   -0.000856  -0.000089  -0.001272   0.000693
    15  H   -0.000102   0.000410  -0.000098   0.000405
    16  H   -0.000003  -0.014199   0.000001  -0.000008
    17  H   -0.000025  -0.013064   0.000001  -0.000004
    18  Cl   0.003926  -0.029080   0.009956  -0.007906
    19  Cl  17.355054   0.000127  -0.197746   0.010030
    20  Cl   0.000127  17.372383   0.000003   0.000112
    21  Cl  -0.197746   0.000003  17.516863  -0.204311
    22  Cl   0.010030   0.000112  -0.204311  17.342875
 Mulliken charges:
               1
     1  C    0.675872
     2  C   -0.899090
     3  C   -0.225240
     4  C    0.022686
     5  C   -0.424436
     6  C   -1.434074
     7  C    0.700071
     8  C   -0.801467
     9  C   -0.554687
    10  C    0.927146
    11  C   -1.230140
    12  C    0.013019
    13  H    0.150430
    14  H    0.158690
    15  H    0.144203
    16  H    0.154285
    17  H    0.174208
    18  Cl   0.376842
    19  Cl   0.539993
    20  Cl   0.397173
    21  Cl   0.626801
    22  Cl   0.507716
 Sum of Mulliken charges =  -0.00000
 Mulliken charges with hydrogens summed into heavy atoms:
               1
     1  C    0.675872
     2  C   -0.748660
     3  C   -0.225240
     4  C    0.022686
     5  C   -0.424436
     6  C   -1.275384
     7  C    0.700071
     8  C   -0.657264
     9  C   -0.400402
    10  C    0.927146
    11  C   -1.055932
    12  C    0.013019
    18  Cl   0.376842
    19  Cl   0.539993
    20  Cl   0.397173
    21  Cl   0.626801
    22  Cl   0.507716
 Electronic spatial extent (au):  <R**2>=           8367.3228
 Charge=              0.0000 electrons
 Dipole moment (field-independent basis, Debye):
    X=              1.6970    Y=             -0.8954    Z=             -0.8582  Tot=              2.1019
 Quadrupole moment (field-independent basis, Debye-Ang):
   XX=           -141.7957   YY=           -130.4046   ZZ=           -132.7981
   XY=             -1.1793   XZ=             -1.0114   YZ=              2.2949
 Traceless Quadrupole moment (field-independent basis, Debye-Ang):
   XX=             -6.7962   YY=              4.5948   ZZ=              2.2014
   XY=             -1.1793   XZ=             -1.0114   YZ=              2.2949
 Octapole moment (field-independent basis, Debye-Ang**2):
  XXX=            -31.9629  YYY=              2.3013  ZZZ=              3.6641  XYY=              2.4903
  XXY=              6.9417  XXZ=              6.2973  XZZ=             -1.5295  YZZ=             -1.7478
  YYZ=             -2.9625  XYZ=              8.8547
 Hexadecapole moment (field-independent basis, Debye-Ang**3):
 XXXX=          -8685.6907 YYYY=          -1795.4305 ZZZZ=           -634.4290 XXXY=             34.6129
 XXXZ=             31.0573 YYYX=             -7.4278 YYYZ=             -5.0282 ZZZX=             -0.7981
 ZZZY=             12.2170 XXYY=          -1718.9006 XXZZ=          -1536.2346 YYZZ=           -394.4248
 XXYZ=             33.3020 YYXZ=            -13.6903 ZZXY=            -10.4516
 N-N= 1.671008639449D+03 E-N=-9.878535813698D+03  KE= 2.754122496692D+03
 1\1\GINC-CN132\FOpt\RB3LYP\6-311+G(d,p)\C12H5Cl5\20CY91R06\03-Apr-2022
 \0\\# opt b3lyp/6-311+g(d,p) scf=xqc\\Title Card Required\\0,1\C,-0.45
 03836465,-0.3362696331,-0.0271768877\C,0.5956048991,-0.1677114047,-0.9
 362099089\C,1.3378389463,1.0086366626,-0.9510450571\C,1.0580127592,2.0
 484113639,-0.0553588917\C,0.0081477597,1.8673177734,0.8571522185\C,-0.
 735869759,0.6941775614,0.8711646695\C,-1.202943827,-1.620135891,0.0044
 215876\C,-0.503624564,-2.8179024187,0.2140077505\C,-1.1414652219,-4.05
 15484921,0.2588402233\C,-2.5205537515,-4.0982350814,0.0867860621\C,-3.
 2550944796,-2.9396013552,-0.1325755354\C,-2.5912902453,-1.7160162023,-
 0.1719292218\H,0.8308503087,-0.9446671339,-1.6516860718\H,-1.532020231
 6,0.588942926,1.5952119333\H,0.5687962944,-2.7721167146,0.3638405297\H
 ,-0.5794147329,-4.9599942139,0.430712505\H,-4.3251719318,-2.9831582179
 ,-0.2804118939\Cl,-3.5631092995,-0.2901536871,-0.5052156008\Cl,-0.3932
 651087,3.1125266552,2.0140598056\Cl,-3.3532448372,-5.6404662211,0.1417
 925478\Cl,1.9838198753,3.5163856343,-0.0724956028\Cl,2.6260190941,1.15
 68494102,-2.1213840609\\Version=EM64L-G16RevB.01\State=1-A\HF=-2761.51
 86021\RMSD=7.750e-09\RMSF=9.761e-06\Dipole=0.0414179,-0.8184641,0.1107
 667\Quadrupole=0.6370172,-1.2430198,0.6060027,-4.7973069,-0.0717334,-0
 .0829409\PG=C01 [X(C12H5Cl5)]\\@


 IT IS THE BEHAVIOR AND DISTRIBUTION OF THE ELECTRONS 
 AROUND THE NUCLEUS THAT GIVES THE FUNDAMENTAL 
 CHARACTER OF AN ATOM:  IT MUST BE THE SAME FOR MOLECULES.

                               -- C. A. COULSON, 1951
 Job cpu time:       0 days 14 hours 39 minutes 46.3 seconds.
 Elapsed time:       0 days  1 hours 30 minutes 41.6 seconds.
 File lengths (MBytes):  RWF=    130 Int=      0 D2E=      0 Chk=     20 Scr=      1
 Normal termination of Gaussian 16 at Sun Apr  3 12:24:29 2022.
