 Entering Gaussian System, Link 0=g16
 Input=2,4,4prime,6-Tetrachlorobipheny.gjf
 Output=2,4,4prime,6-Tetrachlorobipheny.log
 Initial command:
 /opt/g16/l1.exe "/scratch/gour/Gau-24350.inp" -scrdir="/scratch/gour/"
 Entering Link 1 = /opt/g16/l1.exe PID=     24351.
  
 Copyright (c) 1988-2017, Gaussian, Inc.  All Rights Reserved.
  
 This is part of the Gaussian(R) 16 program.  It is based on
 the Gaussian(R) 09 system (copyright 2009, Gaussian, Inc.),
 the Gaussian(R) 03 system (copyright 2003, Gaussian, Inc.),
 the Gaussian(R) 98 system (copyright 1998, Gaussian, Inc.),
 the Gaussian(R) 94 system (copyright 1995, Gaussian, Inc.),
 the Gaussian 92(TM) system (copyright 1992, Gaussian, Inc.),
 the Gaussian 90(TM) system (copyright 1990, Gaussian, Inc.),
 the Gaussian 88(TM) system (copyright 1988, Gaussian, Inc.),
 the Gaussian 86(TM) system (copyright 1986, Carnegie Mellon
 University), and the Gaussian 82(TM) system (copyright 1983,
 Carnegie Mellon University). Gaussian is a federally registered
 trademark of Gaussian, Inc.
  
 This software contains proprietary and confidential information,
 including trade secrets, belonging to Gaussian, Inc.
  
 This software is provided under written license and may be
 used, copied, transmitted, or stored only in accord with that
 written license.
  
 The following legend is applicable only to US Government
 contracts under FAR:
  
                    RESTRICTED RIGHTS LEGEND
  
 Use, reproduction and disclosure by the US Government is
 subject to restrictions as set forth in subparagraphs (a)
 and (c) of the Commercial Computer Software - Restricted
 Rights clause in FAR 52.227-19.
  
 Gaussian, Inc.
 340 Quinnipiac St., Bldg. 40, Wallingford CT 06492
  
  
 ---------------------------------------------------------------
 Warning -- This program may not be used in any manner that
 competes with the business of Gaussian, Inc. or will provide
 assistance to any competitor of Gaussian, Inc.  The licensee
 of this program is prohibited from giving any competitor of
 Gaussian, Inc. access to this program.  By using this program,
 the user acknowledges that Gaussian, Inc. is engaged in the
 business of creating and licensing software in the field of
 computational chemistry and represents and warrants to the
 licensee that it is not a competitor of Gaussian, Inc. and that
 it will not use this program in any manner prohibited above.
 ---------------------------------------------------------------
  

 Cite this work as:
 Gaussian 16, Revision B.01,
 M. J. Frisch, G. W. Trucks, H. B. Schlegel, G. E. Scuseria, 
 M. A. Robb, J. R. Cheeseman, G. Scalmani, V. Barone, 
 G. A. Petersson, H. Nakatsuji, X. Li, M. Caricato, A. V. Marenich, 
 J. Bloino, B. G. Janesko, R. Gomperts, B. Mennucci, H. P. Hratchian, 
 J. V. Ortiz, A. F. Izmaylov, J. L. Sonnenberg, D. Williams-Young, 
 F. Ding, F. Lipparini, F. Egidi, J. Goings, B. Peng, A. Petrone, 
 T. Henderson, D. Ranasinghe, V. G. Zakrzewski, J. Gao, N. Rega, 
 G. Zheng, W. Liang, M. Hada, M. Ehara, K. Toyota, R. Fukuda, 
 J. Hasegawa, M. Ishida, T. Nakajima, Y. Honda, O. Kitao, H. Nakai, 
 T. Vreven, K. Throssell, J. A. Montgomery, Jr., J. E. Peralta, 
 F. Ogliaro, M. J. Bearpark, J. J. Heyd, E. N. Brothers, K. N. Kudin, 
 V. N. Staroverov, T. A. Keith, R. Kobayashi, J. Normand, 
 K. Raghavachari, A. P. Rendell, J. C. Burant, S. S. Iyengar, 
 J. Tomasi, M. Cossi, J. M. Millam, M. Klene, C. Adamo, R. Cammi, 
 J. W. Ochterski, R. L. Martin, K. Morokuma, O. Farkas, 
 J. B. Foresman, and D. J. Fox, Gaussian, Inc., Wallingford CT, 2016.
 
 ******************************************
 Gaussian 16:  EM64L-G16RevB.01 20-Dec-2017
                15-Mar-2022 
 ******************************************
 %mem=10GB
 %nprocshared=4
 Will use up to    4 processors via shared memory.
 --------------------------------
 # opt b3lyp/6-311+g(d,p) scf=xqc
 --------------------------------
 1/18=20,19=15,26=3,38=1/1,3;
 2/9=110,12=2,17=6,18=5,40=1/2;
 3/5=4,6=6,7=111,11=2,25=1,30=1,71=1,74=-5/1,2,3;
 4//1;
 5/5=2,8=3,13=1,38=5/2,8;
 6/7=2,8=2,9=2,10=2,28=1/1;
 7//1,2,3,16;
 1/18=20,19=15,26=3/3(2);
 2/9=110/2;
 99//99;
 2/9=110/2;
 3/5=4,6=6,7=111,11=2,25=1,30=1,71=1,74=-5/1,2,3;
 4/5=5,16=3,69=1/1;
 5/5=2,8=3,13=1,38=5/2,8;
 7//1,2,3,16;
 1/18=20,19=15,26=3/3(-5);
 2/9=110/2;
 6/7=2,8=2,9=2,10=2,19=2,28=1/1;
 99/9=1/99;
 -------------------
 Title Card Required
 -------------------
 Symbolic Z-matrix:
 Charge =  0 Multiplicity = 1
 C                     0.37865   0.31298  -0.00285 
 C                     1.71103   0.34287  -0.4362 
 C                     2.41892   1.55232  -0.44227 
 C                     1.79443   2.73189  -0.015 
 C                     0.46205   2.702     0.41835 
 C                    -0.24584   1.49255   0.42442 
 C                    -0.39926  -1.01608   0.00382 
 C                     0.22523  -2.19565  -0.42345 
 C                    -0.48266  -3.4051   -0.41738 
 C                    -1.81504  -3.43499   0.01597 
 C                    -2.43953  -2.25542   0.44325 
 C                    -1.73164  -1.04597   0.43717 
 H                     2.18784  -0.55776  -0.76243 
 H                     3.43622   1.57514  -0.77314 
 H                    -0.01476   3.60262   0.74458 
 H                    -1.26315   1.46973   0.75529 
 H                    -0.00585  -4.30572  -0.74361 
 H                    -3.45683  -2.27824   0.77412 
 Cl                   -2.51592   0.43543   0.97378 
 Cl                   -2.70408  -4.95392   0.0236 
 Cl                    2.68347   4.25082  -0.02262 
 Cl                    1.89855  -2.15812  -0.96769 
 

 GradGradGradGradGradGradGradGradGradGradGradGradGradGradGradGradGradGrad
 Berny optimization.
 Initialization pass.
                           ----------------------------
                           !    Initial Parameters    !
                           ! (Angstroms and Degrees)  !
 --------------------------                            --------------------------
 ! Name  Definition              Value          Derivative Info.                !
 --------------------------------------------------------------------------------
 ! R1    R(1,2)                  1.4014         estimate D2E/DX2                !
 ! R2    R(1,6)                  1.4014         estimate D2E/DX2                !
 ! R3    R(1,7)                  1.54           estimate D2E/DX2                !
 ! R4    R(2,3)                  1.4014         estimate D2E/DX2                !
 ! R5    R(2,13)                 1.07           estimate D2E/DX2                !
 ! R6    R(3,4)                  1.4014         estimate D2E/DX2                !
 ! R7    R(3,14)                 1.07           estimate D2E/DX2                !
 ! R8    R(4,5)                  1.4014         estimate D2E/DX2                !
 ! R9    R(4,21)                 1.76           estimate D2E/DX2                !
 ! R10   R(5,6)                  1.4014         estimate D2E/DX2                !
 ! R11   R(5,15)                 1.07           estimate D2E/DX2                !
 ! R12   R(6,16)                 1.07           estimate D2E/DX2                !
 ! R13   R(7,8)                  1.4014         estimate D2E/DX2                !
 ! R14   R(7,12)                 1.4014         estimate D2E/DX2                !
 ! R15   R(8,9)                  1.4014         estimate D2E/DX2                !
 ! R16   R(8,22)                 1.76           estimate D2E/DX2                !
 ! R17   R(9,10)                 1.4014         estimate D2E/DX2                !
 ! R18   R(9,17)                 1.07           estimate D2E/DX2                !
 ! R19   R(10,11)                1.4014         estimate D2E/DX2                !
 ! R20   R(10,20)                1.76           estimate D2E/DX2                !
 ! R21   R(11,12)                1.4014         estimate D2E/DX2                !
 ! R22   R(11,18)                1.07           estimate D2E/DX2                !
 ! R23   R(12,19)                1.76           estimate D2E/DX2                !
 ! A1    A(2,1,6)              120.0            estimate D2E/DX2                !
 ! A2    A(2,1,7)              120.0            estimate D2E/DX2                !
 ! A3    A(6,1,7)              120.0            estimate D2E/DX2                !
 ! A4    A(1,2,3)              120.0            estimate D2E/DX2                !
 ! A5    A(1,2,13)             120.0            estimate D2E/DX2                !
 ! A6    A(3,2,13)             120.0            estimate D2E/DX2                !
 ! A7    A(2,3,4)              120.0            estimate D2E/DX2                !
 ! A8    A(2,3,14)             120.0            estimate D2E/DX2                !
 ! A9    A(4,3,14)             120.0            estimate D2E/DX2                !
 ! A10   A(3,4,5)              120.0            estimate D2E/DX2                !
 ! A11   A(3,4,21)             120.0            estimate D2E/DX2                !
 ! A12   A(5,4,21)             120.0            estimate D2E/DX2                !
 ! A13   A(4,5,6)              120.0            estimate D2E/DX2                !
 ! A14   A(4,5,15)             120.0            estimate D2E/DX2                !
 ! A15   A(6,5,15)             120.0            estimate D2E/DX2                !
 ! A16   A(1,6,5)              120.0            estimate D2E/DX2                !
 ! A17   A(1,6,16)             120.0            estimate D2E/DX2                !
 ! A18   A(5,6,16)             120.0            estimate D2E/DX2                !
 ! A19   A(1,7,8)              120.0            estimate D2E/DX2                !
 ! A20   A(1,7,12)             120.0            estimate D2E/DX2                !
 ! A21   A(8,7,12)             120.0            estimate D2E/DX2                !
 ! A22   A(7,8,9)              120.0            estimate D2E/DX2                !
 ! A23   A(7,8,22)             120.0            estimate D2E/DX2                !
 ! A24   A(9,8,22)             120.0            estimate D2E/DX2                !
 ! A25   A(8,9,10)             120.0            estimate D2E/DX2                !
 ! A26   A(8,9,17)             120.0            estimate D2E/DX2                !
 ! A27   A(10,9,17)            120.0            estimate D2E/DX2                !
 ! A28   A(9,10,11)            120.0            estimate D2E/DX2                !
 ! A29   A(9,10,20)            120.0            estimate D2E/DX2                !
 ! A30   A(11,10,20)           120.0            estimate D2E/DX2                !
 ! A31   A(10,11,12)           120.0            estimate D2E/DX2                !
 ! A32   A(10,11,18)           120.0            estimate D2E/DX2                !
 ! A33   A(12,11,18)           120.0            estimate D2E/DX2                !
 ! A34   A(7,12,11)            120.0            estimate D2E/DX2                !
 ! A35   A(7,12,19)            120.0            estimate D2E/DX2                !
 ! A36   A(11,12,19)           120.0            estimate D2E/DX2                !
 ! D1    D(6,1,2,3)              0.0001         estimate D2E/DX2                !
 ! D2    D(6,1,2,13)           180.0            estimate D2E/DX2                !
 ! D3    D(7,1,2,3)           -180.0            estimate D2E/DX2                !
 ! D4    D(7,1,2,13)            -0.0001         estimate D2E/DX2                !
 ! D5    D(2,1,6,5)             -0.0001         estimate D2E/DX2                !
 ! D6    D(2,1,6,16)           180.0            estimate D2E/DX2                !
 ! D7    D(7,1,6,5)            180.0            estimate D2E/DX2                !
 ! D8    D(7,1,6,16)             0.0            estimate D2E/DX2                !
 ! D9    D(2,1,7,8)             -0.0001         estimate D2E/DX2                !
 ! D10   D(2,1,7,12)           179.9998         estimate D2E/DX2                !
 ! D11   D(6,1,7,8)            179.9999         estimate D2E/DX2                !
 ! D12   D(6,1,7,12)            -0.0002         estimate D2E/DX2                !
 ! D13   D(1,2,3,4)              0.0            estimate D2E/DX2                !
 ! D14   D(1,2,3,14)           180.0            estimate D2E/DX2                !
 ! D15   D(13,2,3,4)          -179.9999         estimate D2E/DX2                !
 ! D16   D(13,2,3,14)            0.0001         estimate D2E/DX2                !
 ! D17   D(2,3,4,5)             -0.0001         estimate D2E/DX2                !
 ! D18   D(2,3,4,21)           180.0            estimate D2E/DX2                !
 ! D19   D(14,3,4,5)           179.9999         estimate D2E/DX2                !
 ! D20   D(14,3,4,21)            0.0            estimate D2E/DX2                !
 ! D21   D(3,4,5,6)              0.0001         estimate D2E/DX2                !
 ! D22   D(3,4,5,15)          -179.9999         estimate D2E/DX2                !
 ! D23   D(21,4,5,6)          -180.0            estimate D2E/DX2                !
 ! D24   D(21,4,5,15)            0.0            estimate D2E/DX2                !
 ! D25   D(4,5,6,1)              0.0            estimate D2E/DX2                !
 ! D26   D(4,5,6,16)           179.9999         estimate D2E/DX2                !
 ! D27   D(15,5,6,1)           180.0            estimate D2E/DX2                !
 ! D28   D(15,5,6,16)           -0.0001         estimate D2E/DX2                !
 ! D29   D(1,7,8,9)            179.9999         estimate D2E/DX2                !
 ! D30   D(1,7,8,22)             0.0001         estimate D2E/DX2                !
 ! D31   D(12,7,8,9)             0.0001         estimate D2E/DX2                !
 ! D32   D(12,7,8,22)         -179.9998         estimate D2E/DX2                !
 ! D33   D(1,7,12,11)         -179.9999         estimate D2E/DX2                !
 ! D34   D(1,7,12,19)            0.0            estimate D2E/DX2                !
 ! D35   D(8,7,12,11)           -0.0001         estimate D2E/DX2                !
 ! D36   D(8,7,12,19)          179.9999         estimate D2E/DX2                !
 ! D37   D(7,8,9,10)             0.0            estimate D2E/DX2                !
 ! D38   D(7,8,9,17)           180.0            estimate D2E/DX2                !
 ! D39   D(22,8,9,10)          179.9998         estimate D2E/DX2                !
 ! D40   D(22,8,9,17)           -0.0002         estimate D2E/DX2                !
 ! D41   D(8,9,10,11)            0.0            estimate D2E/DX2                !
 ! D42   D(8,9,10,20)         -179.9999         estimate D2E/DX2                !
 ! D43   D(17,9,10,11)         180.0            estimate D2E/DX2                !
 ! D44   D(17,9,10,20)           0.0001         estimate D2E/DX2                !
 ! D45   D(9,10,11,12)           0.0            estimate D2E/DX2                !
 ! D46   D(9,10,11,18)        -179.9998         estimate D2E/DX2                !
 ! D47   D(20,10,11,12)        179.9999         estimate D2E/DX2                !
 ! D48   D(20,10,11,18)          0.0001         estimate D2E/DX2                !
 ! D49   D(10,11,12,7)           0.0            estimate D2E/DX2                !
 ! D50   D(10,11,12,19)       -179.9999         estimate D2E/DX2                !
 ! D51   D(18,11,12,7)         179.9999         estimate D2E/DX2                !
 ! D52   D(18,11,12,19)         -0.0001         estimate D2E/DX2                !
 --------------------------------------------------------------------------------
 Trust Radius=3.00D-01 FncErr=1.00D-07 GrdErr=1.00D-06 EigMax=2.50D+02 EigMin=1.00D-04
 Number of steps in this run=    121 maximum allowed number of steps=    132.
 GradGradGradGradGradGradGradGradGradGradGradGradGradGradGradGradGradGrad

                          Input orientation:                          
 ---------------------------------------------------------------------
 Center     Atomic      Atomic             Coordinates (Angstroms)
 Number     Number       Type             X           Y           Z
 ---------------------------------------------------------------------
      1          6           0        0.378646    0.312983   -0.002851
      2          6           0        1.711027    0.342869   -0.436198
      3          6           0        2.418920    1.552320   -0.442270
      4          6           0        1.794433    2.731885   -0.014995
      5          6           0        0.462051    2.702000    0.418349
      6          6           0       -0.245842    1.492549    0.424422
      7          6           0       -0.399259   -1.016084    0.003823
      8          6           0        0.225228   -2.195649   -0.423452
      9          6           0       -0.482665   -3.405100   -0.417378
     10          6           0       -1.815045   -3.434987    0.015972
     11          6           0       -2.439532   -2.255422    0.443247
     12          6           0       -1.731639   -1.045970    0.437173
     13          1           0        2.187837   -0.557755   -0.762429
     14          1           0        3.436223    1.575139   -0.773139
     15          1           0       -0.014760    3.602624    0.744581
     16          1           0       -1.263145    1.469730    0.755291
     17          1           0       -0.005855   -4.305724   -0.743612
     18          1           0       -3.456833   -2.278241    0.774122
     19         17           0       -2.515924    0.435430    0.973785
     20         17           0       -2.704078   -4.953921    0.023603
     21         17           0        2.683467    4.250819   -0.022621
     22         17           0        1.898548   -2.158116   -0.967686
 ---------------------------------------------------------------------
                    Distance matrix (angstroms):
                    1          2          3          4          5
     1  C    0.000000
     2  C    1.401400   0.000000
     3  C    2.427296   1.401400   0.000000
     4  C    2.802800   2.427296   1.401400   0.000000
     5  C    2.427296   2.802800   2.427296   1.401400   0.000000
     6  C    1.401400   2.427296   2.802800   2.427296   1.401400
     7  C    1.540000   2.548270   3.838989   4.342800   3.838989
     8  C    2.548270   2.941400   4.342800   5.187469   4.975106
     9  C    3.838989   4.342800   5.744200   6.558176   6.235992
    10  C    4.342800   5.187469   6.558176   7.145600   6.558176
    11  C    3.838989   4.975106   6.235992   6.558176   5.744200
    12  C    2.548270   3.813607   4.975106   5.187469   4.342800
    13  H    2.146700   1.070000   2.146700   3.396345   3.872800
    14  H    3.396345   2.146700   1.070000   2.146700   3.396345
    15  H    3.396345   3.872800   3.396345   2.146700   1.070000
    16  H    2.146700   3.396345   3.872800   3.396345   2.146700
    17  H    4.693509   4.965039   6.347206   7.300676   7.118798
    18  H    4.693509   5.919617   7.118798   7.300676   6.347206
    19  Cl   3.057342   4.456874   5.254079   4.983028   3.783409
    20  Cl   6.102800   6.910901   8.294174   8.905600   8.294174
    21  Cl   4.562800   4.048303   2.743718   1.760000   2.743718
    22  Cl   3.057342   2.563702   3.783409   4.983028   5.254079
                    6          7          8          9         10
     6  C    0.000000
     7  C    2.548270   0.000000
     8  C    3.813607   1.401400   0.000000
     9  C    4.975106   2.427296   1.401400   0.000000
    10  C    5.187469   2.802800   2.427296   1.401400   0.000000
    11  C    4.342800   2.427296   2.802800   2.427296   1.401400
    12  C    2.941400   1.401400   2.427296   2.802800   2.427296
    13  H    3.396345   2.736837   2.578650   3.918930   4.990735
    14  H    3.872800   4.693509   4.965039   6.347206   7.300676
    15  H    2.146700   4.693509   5.919617   7.118798   7.300676
    16  H    1.070000   2.736837   4.127917   5.074276   4.990735
    17  H    5.919617   3.396345   2.146700   1.070000   2.146700
    18  H    4.965039   3.396345   3.872800   3.396345   2.146700
    19  Cl   2.563702   2.743718   4.048303   4.562800   4.048303
    20  Cl   6.910901   4.562800   4.048303   2.743718   1.760000
    21  Cl   4.048303   6.102800   6.910901   8.294174   8.905600
    22  Cl   4.456874   2.743718   1.760000   2.743718   4.048303
                   11         12         13         14         15
    11  C    0.000000
    12  C    1.401400   0.000000
    13  H    5.074276   4.127917   0.000000
    14  H    7.118798   5.919617   2.471400   0.000000
    15  H    6.347206   4.965039   4.942800   4.280590   0.000000
    16  H    3.918930   2.578650   4.280590   4.942800   2.471400
    17  H    3.396345   3.872800   4.342800   6.814200   8.047159
    18  H    1.070000   2.146700   6.097816   8.047159   6.814200
    19  Cl   2.743718   1.760000   5.111382   6.307038   4.042212
    20  Cl   2.743718   4.048303   6.623817   8.998151   8.998151
    21  Cl   8.294174   6.910901   4.890332   2.879094   2.879094
    22  Cl   4.562800   4.048303   1.639199   4.042212   6.307038
                   16         17         18         19         20
    16  H    0.000000
    17  H    6.097816   0.000000
    18  H    4.342800   4.280590   0.000000
    19  Cl   1.639199   5.632800   2.879094   0.000000
    20  Cl   6.623817   2.879094   2.879094   5.475705   0.000000
    21  Cl   4.890332   8.998151   8.998151   6.525618  10.665600
    22  Cl   5.111382   2.879094   5.632800   5.475705   5.475705
                   21         22
    21  Cl   0.000000
    22  Cl   6.525618   0.000000
 Stoichiometry    C12H6Cl4
 Framework group  C1[X(C12H6Cl4)]
 Deg. of freedom    60
 Full point group                 C1      NOp   1
 Largest Abelian subgroup         C1      NOp   1
 Largest concise Abelian subgroup C1      NOp   1
                         Standard orientation:                         
 ---------------------------------------------------------------------
 Center     Atomic      Atomic             Coordinates (Angstroms)
 Number     Number       Type             X           Y           Z
 ---------------------------------------------------------------------
      1          6           0        0.894742    0.000000    0.000002
      2          6           0        1.595442    1.213648    0.000000
      3          6           0        2.996842    1.213648   -0.000001
      4          6           0        3.697542    0.000000   -0.000001
      5          6           0        2.996842   -1.213648    0.000003
      6          6           0        1.595442   -1.213648    0.000005
      7          6           0       -0.645258    0.000000    0.000003
      8          6           0       -1.345958    1.213648    0.000003
      9          6           0       -2.747358    1.213648    0.000002
     10          6           0       -3.448058    0.000000    0.000001
     11          6           0       -2.747358   -1.213648    0.000000
     12          6           0       -1.345958   -1.213648    0.000001
     13          1           0        1.060442    2.140295   -0.000002
     14          1           0        3.531842    2.140295   -0.000003
     15          1           0        3.531842   -2.140295    0.000006
     16          1           0        1.060442   -2.140295    0.000007
     17          1           0       -3.282358    2.140295    0.000002
     18          1           0       -3.282358   -2.140295   -0.000003
     19         17           0       -0.465958   -2.737853   -0.000001
     20         17           0       -5.208058    0.000000   -0.000003
     21         17           0        5.457542    0.000000   -0.000003
     22         17           0       -0.465958    2.737853    0.000000
 ---------------------------------------------------------------------
 Rotational constants (GHZ):           0.7289005           0.1756677           0.1415529
 Standard basis: 6-311+G(d,p) (5D, 7F)
 There are   436 symmetry adapted cartesian basis functions of A   symmetry.
 There are   420 symmetry adapted basis functions of A   symmetry.
   420 basis functions,   692 primitive gaussians,   436 cartesian basis functions
    73 alpha electrons       73 beta electrons
       nuclear repulsion energy      1435.9502306003 Hartrees.
 NAtoms=   22 NActive=   22 NUniq=   22 SFac= 1.00D+00 NAtFMM=   60 NAOKFM=F Big=F
 Integral buffers will be    131072 words long.
 Raffenetti 2 integral format.
 Two-electron integral symmetry is turned on.
 One-electron integrals computed using PRISM.
 NBasis=   420 RedAO= T EigKep=  2.34D-06  NBF=   420
 NBsUse=   414 1.00D-06 EigRej=  7.30D-07 NBFU=   414
 ExpMin= 4.38D-02 ExpMax= 1.06D+05 ExpMxC= 3.62D+03 IAcc=3 IRadAn=         5 AccDes= 0.00D+00
 Harris functional with IExCor=  402 and IRadAn=       5 diagonalized for initial guess.
 HarFok:  IExCor=  402 AccDes= 0.00D+00 IRadAn=         5 IDoV= 1 UseB2=F ITyADJ=14
 ICtDFT=  3500011 ScaDFX=  1.000000  1.000000  1.000000  1.000000
 FoFCou: FMM=F IPFlag=           0 FMFlag=      100000 FMFlg1=           0
         NFxFlg=           0 DoJE=T BraDBF=F KetDBF=T FulRan=T
         wScrn=  0.000000 ICntrl=       500 IOpCl=  0 I1Cent=   200000004 NGrid=           0
         NMat0=    1 NMatS0=      1 NMatT0=    0 NMatD0=    1 NMtDS0=    0 NMtDT0=    0
 Petite list used in FoFCou.
 Requested convergence on RMS density matrix=1.00D-08 within  32 cycles.
 Requested convergence on MAX density matrix=1.00D-06.
 Requested convergence on             energy=1.00D-06.
 No special actions if energy rises.
 SCF Done:  E(RB3LYP) =  -2301.78418253     A.U. after   16 cycles
            NFock= 16  Conv=0.15D-08     -V/T= 2.0025
 QCSCF skips out because SCF is already converged.

 **********************************************************************

            Population analysis using the SCF Density.

 **********************************************************************

 Orbital symmetries:
       Occupied  (A) (A) (A) (A) (A) (A) (A) (A) (A) (A) (A) (A)
                 (A) (A) (A) (A) (A) (A) (A) (A) (A) (A) (A) (A)
                 (A) (A) (A) (A) (A) (A) (A) (A) (A) (A) (A) (A)
                 (A) (A) (A) (A) (A) (A) (A) (A) (A) (A) (A) (A)
                 (A) (A) (A) (A) (A) (A) (A) (A) (A) (A) (A) (A)
                 (A) (A) (A) (A) (A) (A) (A) (A) (A) (A) (A) (A)
                 (A)
       Virtual   (A) (A) (A) (A) (A) (A) (A) (A) (A) (A) (A) (A)
                 (A) (A) (A) (A) (A) (A) (A) (A) (A) (A) (A) (A)
                 (A) (A) (A) (A) (A) (A) (A) (A) (A) (A) (A) (A)
                 (A) (A) (A) (A) (A) (A) (A) (A) (A) (A) (A) (A)
                 (A) (A) (A) (A) (A) (A) (A) (A) (A) (A) (A) (A)
                 (A) (A) (A) (A) (A) (A) (A) (A) (A) (A) (A) (A)
                 (A) (A) (A) (A) (A) (A) (A) (A) (A) (A) (A) (A)
                 (A) (A) (A) (A) (A) (A) (A) (A) (A) (A) (A) (A)
                 (A) (A) (A) (A) (A) (A) (A) (A) (A) (A) (A) (A)
                 (A) (A) (A) (A) (A) (A) (A) (A) (A) (A) (A) (A)
                 (A) (A) (A) (A) (A) (A) (A) (A) (A) (A) (A) (A)
                 (A) (A) (A) (A) (A) (A) (A) (A) (A) (A) (A) (A)
                 (A) (A) (A) (A) (A) (A) (A) (A) (A) (A) (A) (A)
                 (A) (A) (A) (A) (A) (A) (A) (A) (A) (A) (A) (A)
                 (A) (A) (A) (A) (A) (A) (A) (A) (A) (A) (A) (A)
                 (A) (A) (A) (A) (A) (A) (A) (A) (A) (A) (A) (A)
                 (A) (A) (A) (A) (A) (A) (A) (A) (A) (A) (A) (A)
                 (A) (A) (A) (A) (A) (A) (A) (A) (A) (A) (A) (A)
                 (A) (A) (A) (A) (A) (A) (A) (A) (A) (A) (A) (A)
                 (A) (A) (A) (A) (A) (A) (A) (A) (A) (A) (A) (A)
                 (A) (A) (A) (A) (A) (A) (A) (A) (A) (A) (A) (A)
                 (A) (A) (A) (A) (A) (A) (A) (A) (A) (A) (A) (A)
                 (A) (A) (A) (A) (A) (A) (A) (A) (A) (A) (A) (A)
                 (A) (A) (A) (A) (A) (A) (A) (A) (A) (A) (A) (A)
                 (A) (A) (A) (A) (A) (A) (A) (A) (A) (A) (A) (A)
                 (A) (A) (A) (A) (A) (A) (A) (A) (A) (A) (A) (A)
                 (A) (A) (A) (A) (A) (A) (A) (A) (A) (A) (A) (A)
                 (A) (A) (A) (A) (A) (A) (A) (A) (A) (A) (A) (A)
                 (A) (A) (A) (A) (A)
 The electronic state is 1-A.
 Alpha  occ. eigenvalues -- -101.58341-101.58341-101.57998-101.55544 -10.27886
 Alpha  occ. eigenvalues --  -10.27885 -10.27509 -10.24403 -10.23831 -10.22502
 Alpha  occ. eigenvalues --  -10.22501 -10.20903 -10.18959 -10.18958 -10.17273
 Alpha  occ. eigenvalues --  -10.17272  -9.50113  -9.50112  -9.49412  -9.46992
 Alpha  occ. eigenvalues --   -7.26527  -7.26527  -7.25902  -7.25559  -7.25559
 Alpha  occ. eigenvalues --   -7.25542  -7.25542  -7.24882  -7.24852  -7.23443
 Alpha  occ. eigenvalues --   -7.22485  -7.22444  -0.95105  -0.91858  -0.90727
 Alpha  occ. eigenvalues --   -0.89204  -0.84843  -0.84426  -0.78447  -0.78059
 Alpha  occ. eigenvalues --   -0.75923  -0.73252  -0.64973  -0.63778  -0.63729
 Alpha  occ. eigenvalues --   -0.61219  -0.55069  -0.53375  -0.53200  -0.49344
 Alpha  occ. eigenvalues --   -0.49125  -0.48936  -0.47130  -0.45699  -0.45435
 Alpha  occ. eigenvalues --   -0.45419  -0.42163  -0.41461  -0.40412  -0.39952
 Alpha  occ. eigenvalues --   -0.39311  -0.38910  -0.38711  -0.34554  -0.34312
 Alpha  occ. eigenvalues --   -0.33783  -0.32258  -0.29930  -0.29120  -0.28575
 Alpha  occ. eigenvalues --   -0.28062  -0.26630  -0.24376
 Alpha virt. eigenvalues --   -0.06912  -0.06292  -0.04585  -0.02818  -0.00983
 Alpha virt. eigenvalues --   -0.00721  -0.00584   0.00247   0.01403   0.01629
 Alpha virt. eigenvalues --    0.01714   0.02833   0.03721   0.03944   0.04746
 Alpha virt. eigenvalues --    0.05703   0.05950   0.06212   0.06313   0.06608
 Alpha virt. eigenvalues --    0.07369   0.08116   0.08680   0.08828   0.08866
 Alpha virt. eigenvalues --    0.09153   0.09500   0.10057   0.10752   0.11079
 Alpha virt. eigenvalues --    0.11705   0.11923   0.12909   0.12926   0.13427
 Alpha virt. eigenvalues --    0.13471   0.13888   0.14733   0.14822   0.14899
 Alpha virt. eigenvalues --    0.15653   0.16115   0.16294   0.17403   0.17500
 Alpha virt. eigenvalues --    0.17609   0.17825   0.18647   0.18717   0.19099
 Alpha virt. eigenvalues --    0.19589   0.20256   0.20441   0.20462   0.20844
 Alpha virt. eigenvalues --    0.21023   0.21739   0.22491   0.22749   0.23235
 Alpha virt. eigenvalues --    0.23727   0.24392   0.24399   0.24608   0.24885
 Alpha virt. eigenvalues --    0.25997   0.26082   0.27324   0.27349   0.27502
 Alpha virt. eigenvalues --    0.27927   0.28940   0.29986   0.30465   0.31195
 Alpha virt. eigenvalues --    0.31655   0.31889   0.32904   0.34015   0.34384
 Alpha virt. eigenvalues --    0.35492   0.37858   0.38255   0.38488   0.40610
 Alpha virt. eigenvalues --    0.42328   0.42943   0.43135   0.43588   0.44322
 Alpha virt. eigenvalues --    0.45200   0.45252   0.45560   0.46532   0.47562
 Alpha virt. eigenvalues --    0.48142   0.48502   0.50141   0.51566   0.52106
 Alpha virt. eigenvalues --    0.52559   0.53942   0.54120   0.54312   0.55856
 Alpha virt. eigenvalues --    0.56463   0.56921   0.58233   0.58803   0.59403
 Alpha virt. eigenvalues --    0.59459   0.59601   0.59815   0.61615   0.63375
 Alpha virt. eigenvalues --    0.63432   0.63681   0.64291   0.66076   0.66153
 Alpha virt. eigenvalues --    0.67358   0.68249   0.68608   0.68620   0.69107
 Alpha virt. eigenvalues --    0.71260   0.72931   0.77961   0.78131   0.80512
 Alpha virt. eigenvalues --    0.80918   0.81674   0.82069   0.82667   0.82823
 Alpha virt. eigenvalues --    0.83264   0.83424   0.83591   0.83726   0.84320
 Alpha virt. eigenvalues --    0.84914   0.85535   0.86606   0.87196   0.87719
 Alpha virt. eigenvalues --    0.88220   0.88519   0.88972   0.90492   0.92029
 Alpha virt. eigenvalues --    0.92405   0.92629   0.93014   0.93043   0.94403
 Alpha virt. eigenvalues --    0.94824   0.95674   0.96078   0.96882   0.98049
 Alpha virt. eigenvalues --    0.99519   1.00048   1.00894   1.01556   1.01568
 Alpha virt. eigenvalues --    1.06392   1.07787   1.08382   1.08412   1.09707
 Alpha virt. eigenvalues --    1.10272   1.10622   1.12582   1.13464   1.16668
 Alpha virt. eigenvalues --    1.19005   1.19272   1.19946   1.24238   1.24673
 Alpha virt. eigenvalues --    1.28108   1.28211   1.28355   1.28932   1.29024
 Alpha virt. eigenvalues --    1.32783   1.35210   1.35402   1.43294   1.44543
 Alpha virt. eigenvalues --    1.45751   1.49281   1.49546   1.53911   1.54604
 Alpha virt. eigenvalues --    1.54912   1.56595   1.56600   1.58473   1.59037
 Alpha virt. eigenvalues --    1.59194   1.59758   1.62648   1.65457   1.68216
 Alpha virt. eigenvalues --    1.68356   1.70776   1.74261   1.77724   1.77926
 Alpha virt. eigenvalues --    1.81774   1.82300   1.82692   1.84533   1.86097
 Alpha virt. eigenvalues --    1.86323   1.91052   1.92231   1.92384   1.93329
 Alpha virt. eigenvalues --    1.95123   1.95512   1.96908   1.98101   1.98283
 Alpha virt. eigenvalues --    1.98788   2.04086   2.06794   2.07212   2.08191
 Alpha virt. eigenvalues --    2.08622   2.09370   2.10494   2.19309   2.20208
 Alpha virt. eigenvalues --    2.22859   2.24354   2.25122   2.25637   2.26485
 Alpha virt. eigenvalues --    2.26919   2.27825   2.32249   2.34913   2.35540
 Alpha virt. eigenvalues --    2.39781   2.40448   2.42544   2.43128   2.46865
 Alpha virt. eigenvalues --    2.51072   2.51085   2.53272   2.54334   2.56305
 Alpha virt. eigenvalues --    2.56414   2.60340   2.60512   2.62030   2.64686
 Alpha virt. eigenvalues --    2.64988   2.66238   2.69479   2.70074   2.72662
 Alpha virt. eigenvalues --    2.72872   2.73583   2.74590   2.74987   2.75714
 Alpha virt. eigenvalues --    2.79382   2.79534   2.81251   2.81318   2.83261
 Alpha virt. eigenvalues --    2.86538   2.91427   2.92860   2.94122   2.99822
 Alpha virt. eigenvalues --    3.02852   3.04541   3.07646   3.11355   3.12672
 Alpha virt. eigenvalues --    3.15163   3.19364   3.20520   3.23060   3.24515
 Alpha virt. eigenvalues --    3.32847   3.36686   3.38373   3.43324   3.52835
 Alpha virt. eigenvalues --    3.55067   3.62006   3.67301   3.71345   3.77034
 Alpha virt. eigenvalues --    3.80571   3.96963   4.02492   4.07836   4.16852
 Alpha virt. eigenvalues --    4.21929   4.44994   4.78806   4.83970   9.75777
 Alpha virt. eigenvalues --    9.77859   9.85155   9.86253  23.38833  23.60554
 Alpha virt. eigenvalues --   23.80841  23.84249  23.87354  23.96397  23.97278
 Alpha virt. eigenvalues --   24.00764  24.02713  24.06099  24.08589  24.15911
 Alpha virt. eigenvalues --   25.80674  25.82709  25.83125  25.83466  26.08984
 Alpha virt. eigenvalues --   26.13909  26.53159  26.60797  26.63880  26.68056
 Alpha virt. eigenvalues --   26.75155  26.84173 215.74882 215.76938 215.87291
 Alpha virt. eigenvalues --  215.88435
          Condensed to atoms (all electrons):
               1          2          3          4          5          6
     1  C   15.278351   0.808189  -1.742071  -0.799327  -1.742071   0.808190
     2  C    0.808189  11.580088   1.003193  -1.786438  -1.229144  -2.298798
     3  C   -1.742071   1.003193  14.339324   0.765291  -5.322619  -1.229144
     4  C   -0.799327  -1.786438   0.765291  10.605634   0.765291  -1.786438
     5  C   -1.742071  -1.229144  -5.322619   0.765291  14.339324   1.003193
     6  C    0.808190  -2.298798  -1.229144  -1.786438   1.003193  11.580088
     7  C    4.839734  -0.222766  -1.016084  -0.434844  -1.016084  -0.222766
     8  C   -1.579410   0.733095   0.451326  -0.346762  -1.196134  -0.924139
     9  C   -3.785379   0.520101   0.761480  -0.128232  -0.625244  -0.931422
    10  C   -0.618471  -0.149990  -0.013402  -0.083044  -0.013402  -0.149989
    11  C   -3.785379  -0.931421  -0.625244  -0.128232   0.761480   0.520101
    12  C   -1.579410  -0.924139  -1.196134  -0.346762   0.451326   0.733095
    13  H   -0.318300   0.521485   0.189588  -0.009093  -0.104767  -0.021912
    14  H    0.108680  -0.000784   0.186326   0.003082   0.045240  -0.000654
    15  H    0.108680  -0.000654   0.045240   0.003082   0.186326  -0.000784
    16  H   -0.318300  -0.021912  -0.104767  -0.009093   0.189588   0.521485
    17  H    0.028857  -0.001814  -0.001307  -0.000114   0.000499   0.004205
    18  H    0.028857   0.004205   0.000499  -0.000114  -0.001307  -0.001814
    19  Cl   0.626359   0.158938   0.239572  -0.017731  -0.827715  -0.927204
    20  Cl  -0.041937  -0.017360  -0.000422  -0.001370  -0.000422  -0.017360
    21  Cl  -0.225533  -0.053051   0.284560  -0.911964   0.284560  -0.053051
    22  Cl   0.626359  -0.927204  -0.827715  -0.017731   0.239572   0.158938
               7          8          9         10         11         12
     1  C    4.839734  -1.579410  -3.785379  -0.618471  -3.785379  -1.579410
     2  C   -0.222766   0.733095   0.520101  -0.149990  -0.931421  -0.924139
     3  C   -1.016084   0.451326   0.761480  -0.013402  -0.625244  -1.196134
     4  C   -0.434844  -0.346762  -0.128232  -0.083044  -0.128232  -0.346762
     5  C   -1.016084  -1.196134  -0.625244  -0.013402   0.761480   0.451326
     6  C   -0.222766  -0.924139  -0.931422  -0.149989   0.520101   0.733095
     7  C   12.649597   1.288195  -4.884566  -1.053181  -4.884565   1.288196
     8  C    1.288195  16.539794  -0.057677  -4.741685  -1.240218  -1.998678
     9  C   -4.884566  -0.057677  16.935297   1.058920  -2.135896  -1.240218
    10  C   -1.053181  -4.741685   1.058920  16.591577   1.058921  -4.741685
    11  C   -4.884565  -1.240218  -2.135896   1.058921  16.935296  -0.057677
    12  C    1.288196  -1.998678  -1.240218  -4.741685  -0.057677  16.539795
    13  H   -0.105925   0.121838   0.190602   0.045376  -0.019116  -0.025009
    14  H    0.023403  -0.009764  -0.004713  -0.000456   0.000909   0.007708
    15  H    0.023403   0.007708   0.000909  -0.000456  -0.004713  -0.009764
    16  H   -0.105925  -0.025009  -0.019116   0.045376   0.190602   0.121838
    17  H    0.111315  -0.006406   0.243975   0.004396  -0.011570   0.003079
    18  H    0.111315   0.003079  -0.011570   0.004396   0.243975  -0.006406
    19  Cl   0.202244   0.183454   0.361935  -0.386073  -0.320080  -0.786371
    20  Cl  -0.154797  -0.088834   0.223736  -0.843738   0.223736  -0.088834
    21  Cl  -0.076872  -0.025548  -0.002031  -0.000953  -0.002031  -0.025548
    22  Cl   0.202244  -0.786371  -0.320080  -0.386073   0.361935   0.183454
              13         14         15         16         17         18
     1  C   -0.318300   0.108680   0.108680  -0.318300   0.028857   0.028857
     2  C    0.521485  -0.000784  -0.000654  -0.021912  -0.001814   0.004205
     3  C    0.189588   0.186326   0.045240  -0.104767  -0.001307   0.000499
     4  C   -0.009093   0.003082   0.003082  -0.009093  -0.000114  -0.000114
     5  C   -0.104767   0.045240   0.186326   0.189588   0.000499  -0.001307
     6  C   -0.021912  -0.000654  -0.000784   0.521485   0.004205  -0.001814
     7  C   -0.105925   0.023403   0.023403  -0.105925   0.111315   0.111315
     8  C    0.121838  -0.009764   0.007708  -0.025009  -0.006406   0.003079
     9  C    0.190602  -0.004713   0.000909  -0.019116   0.243975  -0.011570
    10  C    0.045376  -0.000456  -0.000456   0.045376   0.004396   0.004396
    11  C   -0.019116   0.000909  -0.004713   0.190602  -0.011570   0.243975
    12  C   -0.025009   0.007708  -0.009764   0.121838   0.003079  -0.006406
    13  H    0.723751  -0.015603   0.000157  -0.000582   0.000033  -0.000000
    14  H   -0.015603   0.532063  -0.000398   0.000157   0.000000   0.000000
    15  H    0.000157  -0.000398   0.532063  -0.015603   0.000000   0.000000
    16  H   -0.000582   0.000157  -0.015603   0.723751  -0.000000   0.000033
    17  H    0.000033   0.000000   0.000000  -0.000000   0.492506  -0.000235
    18  H   -0.000000   0.000000   0.000000   0.000033  -0.000235   0.492506
    19  Cl   0.002651  -0.000316   0.004262  -0.302175   0.000366  -0.021819
    20  Cl   0.000247  -0.000001  -0.000001   0.000247  -0.010724  -0.010724
    21  Cl   0.001000  -0.014248  -0.014248   0.001000  -0.000000  -0.000000
    22  Cl  -0.302175   0.004262  -0.000316   0.002651  -0.021819   0.000366
              19         20         21         22
     1  C    0.626359  -0.041937  -0.225533   0.626359
     2  C    0.158938  -0.017360  -0.053051  -0.927204
     3  C    0.239572  -0.000422   0.284560  -0.827715
     4  C   -0.017731  -0.001370  -0.911964  -0.017731
     5  C   -0.827715  -0.000422   0.284560   0.239572
     6  C   -0.927204  -0.017360  -0.053051   0.158938
     7  C    0.202244  -0.154797  -0.076872   0.202244
     8  C    0.183454  -0.088834  -0.025548  -0.786371
     9  C    0.361935   0.223736  -0.002031  -0.320080
    10  C   -0.386073  -0.843738  -0.000953  -0.386073
    11  C   -0.320080   0.223736  -0.002031   0.361935
    12  C   -0.786371  -0.088834  -0.025548   0.183454
    13  H    0.002651   0.000247   0.001000  -0.302175
    14  H   -0.000316  -0.000001  -0.014248   0.004262
    15  H    0.004262  -0.000001  -0.014248  -0.000316
    16  H   -0.302175   0.000247   0.001000   0.002651
    17  H    0.000366  -0.010724  -0.000000  -0.021819
    18  H   -0.021819  -0.010724  -0.000000   0.000366
    19  Cl  18.188015  -0.013024  -0.002153  -0.024667
    20  Cl  -0.013024  17.395126   0.000001  -0.013024
    21  Cl  -0.002153   0.000001  17.414704  -0.002153
    22  Cl  -0.024667  -0.013024  -0.002153  18.188015
 Mulliken charges:
               1
     1  C   -0.726670
     2  C   -0.763818
     3  C   -0.187489
     4  C    0.664909
     5  C   -0.187489
     6  C   -0.763818
     7  C   -0.561268
     8  C   -0.301859
     9  C   -0.150813
    10  C    0.373640
    11  C   -0.150813
    12  C   -0.301859
    13  H    0.125756
    14  H    0.135109
    15  H    0.135109
    16  H    0.125756
    17  H    0.164756
    18  H    0.164756
    19  Cl   0.661532
    20  Cl   0.459477
    21  Cl   0.423560
    22  Cl   0.661532
 Sum of Mulliken charges =  -0.00000
 Mulliken charges with hydrogens summed into heavy atoms:
               1
     1  C   -0.726670
     2  C   -0.638061
     3  C   -0.052380
     4  C    0.664909
     5  C   -0.052380
     6  C   -0.638061
     7  C   -0.561268
     8  C   -0.301859
     9  C    0.013943
    10  C    0.373640
    11  C    0.013943
    12  C   -0.301859
    19  Cl   0.661532
    20  Cl   0.459477
    21  Cl   0.423560
    22  Cl   0.661532
 Electronic spatial extent (au):  <R**2>=           6657.6601
 Charge=             -0.0000 electrons
 Dipole moment (field-independent basis, Debye):
    X=             -2.0297    Y=             -0.0000    Z=              0.0000  Tot=              2.0297
 Quadrupole moment (field-independent basis, Debye-Ang):
   XX=           -130.9758   YY=           -111.9728   ZZ=           -124.0956
   XY=             -0.0000   XZ=              0.0000   YZ=             -0.0000
 Traceless Quadrupole moment (field-independent basis, Debye-Ang):
   XX=             -8.6277   YY=             10.3753   ZZ=             -1.7476
   XY=             -0.0000   XZ=              0.0000   YZ=             -0.0000
 Octapole moment (field-independent basis, Debye-Ang**2):
  XXX=            -56.1715  YYY=             -0.0000  ZZZ=             -0.0001  XYY=              8.3477
  XXY=              0.0000  XXZ=             -0.0000  XZZ=             -4.1422  YZZ=             -0.0000
  YYZ=             -0.0000  XYZ=             -0.0001
 Hexadecapole moment (field-independent basis, Debye-Ang**3):
 XXXX=          -7247.8021 YYYY=          -1681.2114 ZZZZ=           -145.1673 XXXY=              0.0000
 XXXZ=              0.0004 YYYX=              0.0000 YYYZ=             -0.0001 ZZZX=              0.0000
 ZZZY=              0.0000 XXYY=          -1375.1108 XXZZ=          -1225.2953 YYZZ=           -328.7074
 XXYZ=             -0.0000 YYXZ=              0.0000 ZZXY=              0.0000
 N-N= 1.435950230600D+03 E-N=-8.316186600277D+03  KE= 2.295985407919D+03
 Calling FoFJK, ICntrl=      2127 FMM=F ISym2X=0 I1Cent= 0 IOpClX= 0 NMat=1 NMatS=1 NMatT=0.
 ***** Axes restored to original set *****
 -------------------------------------------------------------------
 Center     Atomic                   Forces (Hartrees/Bohr)
 Number     Number              X              Y              Z
 -------------------------------------------------------------------
      1        6          -0.015382576   -0.026281401    0.000131885
      2        6           0.004960401    0.055246710    0.008741780
      3        6          -0.016199706    0.003827551    0.006056034
      4        6          -0.005628081   -0.009615538    0.000048077
      5        6           0.011243438   -0.012295558   -0.006013363
      6        6           0.045701790    0.031310745   -0.009176419
      7        6           0.028592095    0.048850152   -0.000245212
      8        6          -0.021473918   -0.006762494    0.005804771
      9        6           0.000634049    0.004714027    0.000676373
     10        6           0.008129941    0.013890155   -0.000069706
     11        6           0.003796695    0.002855943   -0.000714327
     12        6           0.004593816   -0.022077545   -0.005659932
     13        1           0.004805217    0.051594500    0.008106796
     14        1           0.008944871    0.000596115   -0.002834965
     15        1          -0.003847965    0.008112028    0.002791275
     16        1           0.042596126    0.029391977   -0.008513805
     17        1           0.004013859   -0.007138779   -0.002663085
     18        1          -0.008178095    0.000024111    0.002698788
     19       17          -0.087972432   -0.063182482    0.017117256
     20       17           0.003338776    0.005704416   -0.000028704
     21       17          -0.000583718   -0.000997304    0.000005021
     22       17          -0.012084583   -0.107767329   -0.016258537
 -------------------------------------------------------------------
 Cartesian Forces:  Max     0.107767329 RMS     0.025374702

 GradGradGradGradGradGradGradGradGradGradGradGradGradGradGradGradGradGrad
 Berny optimization.
 FormGI is forming the generalized inverse of G from B-inverse, IUseBI=4.
 Internal  Forces:  Max     0.202696311 RMS     0.051000670
 Search for a local minimum.
 Step number   1 out of a maximum of  121
 All quantities printed in internal units (Hartrees-Bohrs-Radians)
 Mixed Optimization -- RFO/linear search
 Second derivative matrix not updated -- first step.
 ITU=  0
     Eigenvalues ---    0.00237   0.01506   0.01506   0.02070   0.02070
     Eigenvalues ---    0.02070   0.02070   0.02070   0.02070   0.02070
     Eigenvalues ---    0.02070   0.02070   0.02070   0.02070   0.02070
     Eigenvalues ---    0.02070   0.02070   0.02070   0.02070   0.16000
     Eigenvalues ---    0.16000   0.16000   0.16000   0.16000   0.16000
     Eigenvalues ---    0.22000   0.22981   0.23478   0.23493   0.24000
     Eigenvalues ---    0.25000   0.25000   0.25000   0.25000   0.25000
     Eigenvalues ---    0.25000   0.25000   0.28519   0.29539   0.29539
     Eigenvalues ---    0.29539   0.29539   0.37230   0.37230   0.37230
     Eigenvalues ---    0.37230   0.37230   0.37230   0.41268   0.41554
     Eigenvalues ---    0.41640   0.41716   0.45389   0.45389   0.45389
     Eigenvalues ---    0.45389   0.45389   0.45389   0.45389   0.45389
 RFO step:  Lambda=-4.13864200D-01 EMin= 2.36824129D-03
 Linear search not attempted -- first point.
 Maximum step size (   0.300) exceeded in Quadratic search.
    -- Step size scaled by   0.388
 Iteration  1 RMS(Cart)=  0.09763820 RMS(Int)=  0.00389576
 Iteration  2 RMS(Cart)=  0.00446369 RMS(Int)=  0.00016160
 Iteration  3 RMS(Cart)=  0.00000804 RMS(Int)=  0.00016156
 Iteration  4 RMS(Cart)=  0.00000000 RMS(Int)=  0.00016156
 Variable       Old X    -DE/DX   Delta X   Delta X   Delta X     New X
                                 (Linear)    (Quad)   (Total)
    R1        2.64826   0.03480   0.00000   0.01616   0.01631   2.66457
    R2        2.64826   0.03480   0.00000   0.01616   0.01631   2.66457
    R3        2.91018   0.15166   0.00000   0.08413   0.08413   2.99431
    R4        2.64826  -0.00601   0.00000  -0.00269  -0.00269   2.64558
    R5        2.02201  -0.04376   0.00000  -0.02158  -0.02158   2.00042
    R6        2.64826  -0.04240   0.00000  -0.01955  -0.01970   2.62856
    R7        2.02201   0.00939   0.00000   0.00463   0.00463   2.02664
    R8        2.64826  -0.04240   0.00000  -0.01955  -0.01970   2.62856
    R9        3.32592  -0.00116   0.00000  -0.00063  -0.00063   3.32529
   R10        2.64826  -0.00601   0.00000  -0.00269  -0.00269   2.64558
   R11        2.02201   0.00939   0.00000   0.00463   0.00463   2.02664
   R12        2.02201  -0.04376   0.00000  -0.02158  -0.02158   2.00042
   R13        2.64826   0.14149   0.00000   0.06530   0.06561   2.71387
   R14        2.64826   0.14149   0.00000   0.06530   0.06561   2.71387
   R15        2.64826  -0.01162   0.00000  -0.00519  -0.00520   2.64307
   R16        3.32592  -0.00876   0.00000  -0.00479  -0.00479   3.32113
   R17        2.64826  -0.06350   0.00000  -0.03044  -0.03076   2.61750
   R18        2.02201   0.00861   0.00000   0.00425   0.00425   2.02625
   R19        2.64826  -0.06350   0.00000  -0.03044  -0.03076   2.61750
   R20        3.32592  -0.00661   0.00000  -0.00361  -0.00361   3.32230
   R21        2.64826  -0.01162   0.00000  -0.00519  -0.00520   2.64307
   R22        2.02201   0.00861   0.00000   0.00425   0.00425   2.02625
   R23        3.32592  -0.00876   0.00000  -0.00479  -0.00479   3.32113
    A1        2.09440  -0.11412   0.00000  -0.06564  -0.06533   2.02907
    A2        2.09440   0.05706   0.00000   0.03282   0.03266   2.12706
    A3        2.09440   0.05706   0.00000   0.03282   0.03266   2.12706
    A4        2.09440   0.05553   0.00000   0.03419   0.03434   2.12874
    A5        2.09440   0.00147   0.00000   0.00266   0.00258   2.09698
    A6        2.09440  -0.05700   0.00000  -0.03685  -0.03693   2.05747
    A7        2.09440   0.01116   0.00000   0.00536   0.00520   2.09960
    A8        2.09440  -0.00517   0.00000  -0.00240  -0.00233   2.09207
    A9        2.09440  -0.00599   0.00000  -0.00295  -0.00288   2.09152
   A10        2.09440  -0.01925   0.00000  -0.01346  -0.01377   2.08063
   A11        2.09440   0.00963   0.00000   0.00673   0.00688   2.10128
   A12        2.09440   0.00963   0.00000   0.00673   0.00688   2.10128
   A13        2.09440   0.01116   0.00000   0.00536   0.00520   2.09960
   A14        2.09440  -0.00599   0.00000  -0.00295  -0.00288   2.09152
   A15        2.09440  -0.00517   0.00000  -0.00240  -0.00233   2.09207
   A16        2.09440   0.05553   0.00000   0.03419   0.03434   2.12874
   A17        2.09440   0.00147   0.00000   0.00266   0.00258   2.09698
   A18        2.09440  -0.05700   0.00000  -0.03685  -0.03693   2.05747
   A19        2.09440   0.07369   0.00000   0.04043   0.04009   2.13449
   A20        2.09440   0.07369   0.00000   0.04043   0.04009   2.13449
   A21        2.09440  -0.14738   0.00000  -0.08086  -0.08018   2.01421
   A22        2.09440   0.04186   0.00000   0.02693   0.02725   2.12164
   A23        2.09440   0.16084   0.00000   0.09271   0.09255   2.18695
   A24        2.09440  -0.20270   0.00000  -0.11964  -0.11980   1.97459
   A25        2.09440   0.03513   0.00000   0.01832   0.01799   2.11238
   A26        2.09440  -0.01778   0.00000  -0.00930  -0.00914   2.08526
   A27        2.09440  -0.01735   0.00000  -0.00902  -0.00885   2.08554
   A28        2.09440  -0.00659   0.00000  -0.00963  -0.01029   2.08411
   A29        2.09440   0.00329   0.00000   0.00482   0.00514   2.09954
   A30        2.09440   0.00329   0.00000   0.00482   0.00514   2.09954
   A31        2.09440   0.03513   0.00000   0.01832   0.01799   2.11238
   A32        2.09440  -0.01735   0.00000  -0.00902  -0.00885   2.08554
   A33        2.09440  -0.01778   0.00000  -0.00930  -0.00914   2.08526
   A34        2.09440   0.04186   0.00000   0.02693   0.02725   2.12164
   A35        2.09440   0.16084   0.00000   0.09271   0.09255   2.18695
   A36        2.09440  -0.20270   0.00000  -0.11964  -0.11980   1.97459
    D1        0.00000   0.00000   0.00000   0.00000   0.00000   0.00000
    D2        3.14159  -0.00000   0.00000   0.00000   0.00000   3.14159
    D3       -3.14159  -0.00000   0.00000  -0.00000  -0.00000  -3.14159
    D4       -0.00000  -0.00000   0.00000  -0.00000  -0.00000  -0.00000
    D5       -0.00000  -0.00000   0.00000  -0.00000  -0.00000  -0.00000
    D6        3.14159  -0.00000   0.00000  -0.00000  -0.00000   3.14159
    D7        3.14159   0.00000   0.00000   0.00000   0.00000   3.14159
    D8        0.00000  -0.00000   0.00000  -0.00000  -0.00000  -0.00000
    D9       -0.00000  -0.00000   0.00000  -0.00000  -0.00000  -0.00000
   D10        3.14159  -0.00000   0.00000  -0.00000  -0.00000   3.14159
   D11        3.14159  -0.00000   0.00000  -0.00000  -0.00000   3.14159
   D12       -0.00000  -0.00000   0.00000  -0.00000  -0.00000  -0.00000
   D13        0.00000  -0.00000   0.00000  -0.00000  -0.00000   0.00000
   D14        3.14159  -0.00000   0.00000  -0.00000  -0.00000   3.14159
   D15       -3.14159  -0.00000   0.00000  -0.00000  -0.00000  -3.14159
   D16        0.00000  -0.00000   0.00000  -0.00000  -0.00000   0.00000
   D17       -0.00000  -0.00000   0.00000   0.00000   0.00000  -0.00000
   D18        3.14159   0.00000   0.00000   0.00000   0.00000   3.14159
   D19        3.14159  -0.00000   0.00000  -0.00000  -0.00000   3.14159
   D20        0.00000  -0.00000   0.00000  -0.00000  -0.00000   0.00000
   D21        0.00000   0.00000   0.00000   0.00000   0.00000   0.00000
   D22       -3.14159   0.00000   0.00000   0.00000   0.00000  -3.14159
   D23       -3.14159  -0.00000   0.00000  -0.00000  -0.00000  -3.14159
   D24        0.00000   0.00000   0.00000   0.00000   0.00000   0.00000
   D25       -0.00000   0.00000   0.00000   0.00000   0.00000  -0.00000
   D26        3.14159   0.00000   0.00000   0.00000   0.00000   3.14159
   D27        3.14159   0.00000   0.00000  -0.00000  -0.00000   3.14159
   D28       -0.00000   0.00000   0.00000   0.00000   0.00000  -0.00000
   D29        3.14159   0.00000   0.00000   0.00000   0.00000   3.14159
   D30        0.00000   0.00000   0.00000   0.00000   0.00000   0.00000
   D31        0.00000   0.00000   0.00000   0.00000   0.00000   0.00000
   D32       -3.14159  -0.00000   0.00000  -0.00000  -0.00000  -3.14159
   D33       -3.14159  -0.00000   0.00000  -0.00000  -0.00000  -3.14159
   D34        0.00000  -0.00000   0.00000  -0.00000  -0.00000  -0.00000
   D35       -0.00000   0.00000   0.00000   0.00000   0.00000  -0.00000
   D36        3.14159  -0.00000   0.00000  -0.00000  -0.00000   3.14159
   D37       -0.00000  -0.00000   0.00000  -0.00000  -0.00000  -0.00000
   D38        3.14159  -0.00000   0.00000  -0.00000  -0.00000   3.14159
   D39        3.14159   0.00000   0.00000   0.00000   0.00000   3.14159
   D40       -0.00000   0.00000   0.00000   0.00000   0.00000  -0.00000
   D41       -0.00000   0.00000   0.00000   0.00000   0.00000  -0.00000
   D42       -3.14159  -0.00000   0.00000  -0.00000  -0.00000  -3.14159
   D43        3.14159   0.00000   0.00000   0.00000   0.00000   3.14159
   D44        0.00000   0.00000   0.00000   0.00000   0.00000   0.00000
   D45        0.00000   0.00000   0.00000   0.00000   0.00000   0.00000
   D46       -3.14159  -0.00000   0.00000  -0.00000  -0.00000  -3.14159
   D47        3.14159   0.00000   0.00000   0.00000   0.00000   3.14159
   D48        0.00000   0.00000   0.00000   0.00000   0.00000   0.00000
   D49        0.00000  -0.00000   0.00000  -0.00000  -0.00000   0.00000
   D50       -3.14159   0.00000   0.00000   0.00000   0.00000  -3.14159
   D51        3.14159   0.00000   0.00000   0.00000   0.00000   3.14159
   D52       -0.00000   0.00000   0.00000   0.00000   0.00000  -0.00000
         Item               Value     Threshold  Converged?
 Maximum Force            0.202696     0.000450     NO 
 RMS     Force            0.051001     0.000300     NO 
 Maximum Displacement     0.536330     0.001800     NO 
 RMS     Displacement     0.099039     0.001200     NO 
 Predicted change in Energy=-1.479735D-01
 GradGradGradGradGradGradGradGradGradGradGradGradGradGradGradGradGradGrad

                          Input orientation:                          
 ---------------------------------------------------------------------
 Center     Atomic      Atomic             Coordinates (Angstroms)
 Number     Number       Type             X           Y           Z
 ---------------------------------------------------------------------
      1          6           0        0.402883    0.354393   -0.003059
      2          6           0        1.744336    0.429768   -0.430851
      3          6           0        2.453409    1.636875   -0.437752
      4          6           0        1.841631    2.812525   -0.015400
      5          6           0        0.518866    2.773439    0.413048
      6          6           0       -0.186411    1.564100    0.418279
      7          6           0       -0.397511   -1.013098    0.003808
      8          6           0        0.193550   -2.250306   -0.423280
      9          6           0       -0.527379   -3.448776   -0.410849
     10          6           0       -1.844510   -3.485328    0.016225
     11          6           0       -2.455745   -2.315842    0.437242
     12          6           0       -1.763782   -1.100354    0.437549
     13          1           0        2.247118   -0.441644   -0.760152
     14          1           0        3.472887    1.655515   -0.770122
     15          1           0        0.037353    3.673925    0.740802
     16          1           0       -1.190947    1.578253    0.751886
     17          1           0       -0.052911   -4.353314   -0.737047
     18          1           0       -3.475312   -2.342620    0.768120
     19         17           0       -2.735435    0.247238    1.010761
     20         17           0       -2.732577   -5.002612    0.023847
     21         17           0        2.730497    4.331170   -0.023025
     22         17           0        1.841795   -2.441929   -1.002292
 ---------------------------------------------------------------------
                    Distance matrix (angstroms):
                    1          2          3          4          5
     1  C    0.000000
     2  C    1.410030   0.000000
     3  C    2.457311   1.399979   0.000000
     4  C    2.848257   2.420661   1.390973   0.000000
     5  C    2.457311   2.776101   2.399603   1.390973   0.000000
     6  C    1.410030   2.394894   2.776101   2.420661   1.399979
     7  C    1.584521   2.618835   3.917280   4.432778   3.917280
     8  C    2.646670   3.096415   4.496371   5.339925   5.103262
     9  C    3.936467   4.494907   5.894885   6.706152   6.363127
    10  C    4.449112   5.329884   6.701878   7.297369   6.701878
    11  C    3.936467   5.092410   6.363127   6.706152   5.894885
    12  C    2.646670   3.924574   5.103262   5.339925   4.496371
    13  H    2.146641   1.058578   2.113467   3.362840   3.834059
    14  H    3.421438   2.146032   1.072452   2.137586   3.372816
    15  H    3.421438   3.848522   3.372816   2.137586   1.072452
    16  H    2.146641   3.366567   3.834059   3.362840   2.113467
    17  H    4.786333   5.118762   6.500276   7.447101   7.241564
    18  H    4.786333   6.030621   7.241564   7.447101   6.500276
    19  Cl   3.299750   4.709556   5.563577   5.346330   4.162863
    20  Cl   6.207200   7.054095   8.437436   9.055456   8.437436
    21  Cl   4.607922   4.044722   2.740073   1.759666   2.740073
    22  Cl   3.299750   2.929623   4.162863   5.346330   5.563577
                    6          7          8          9         10
     6  C    0.000000
     7  C    2.618835   0.000000
     8  C    3.924574   1.436120   0.000000
     9  C    5.092410   2.474133   1.398651   0.000000
    10  C    5.329884   2.864591   2.423248   1.385122   0.000000
    11  C    4.494907   2.474133   2.786316   2.391944   1.385122
    12  C    3.096415   1.436120   2.427873   2.786316   2.423248
    13  H    3.366567   2.811451   2.757151   4.106420   5.158313
    14  H    3.848522   4.764499   5.111731   6.494997   7.437831
    15  H    2.146032   4.764499   6.039536   7.237271   7.437831
    16  H    1.058578   2.811451   4.237418   5.202239   5.158313
    17  H    6.030621   3.438700   2.140522   1.072247   2.128531
    18  H    5.118762   3.438700   3.858562   3.362121   2.128531
    19  Cl   2.929623   2.840473   4.107694   4.533983   3.964202
    20  Cl   7.054095   4.622679   4.041946   2.732447   1.758088
    21  Cl   4.044722   6.192443   7.064852   8.443443   9.057035
    22  Cl   4.709556   2.840473   1.757465   2.641312   3.964202
                   11         12         13         14         15
    11  C    0.000000
    12  C    1.398651   0.000000
    13  H    5.202239   4.237418   0.000000
    14  H    7.237271   6.039536   2.429133   0.000000
    15  H    6.494997   5.111731   4.906509   4.261428   0.000000
    16  H    4.106420   2.757151   4.264567   4.906509   2.429133
    17  H    3.362121   3.858563   4.537822   6.966949   8.162643
    18  H    1.072247   2.140522   6.220573   8.162643   6.966949
    19  Cl   2.641312   1.757465   5.332591   6.610451   4.416267
    20  Cl   2.732447   4.041946   6.798121   9.136128   9.136128
    21  Cl   8.443443   7.064852   4.853531   2.875488   2.875488
    22  Cl   4.533983   4.107694   2.055252   4.416267   6.610451
                   16         17         18         19         20
    16  H    0.000000
    17  H    6.220573   0.000000
    18  H    4.537822   4.245144   0.000000
    19  Cl   2.055252   5.604984   2.704377   0.000000
    20  Cl   6.798121   2.860272   2.860272   5.341810   0.000000
    21  Cl   4.853531   9.147538   9.147538   6.900988  10.815122
    22  Cl   5.332591   2.704377   5.604984   5.677591   5.341810
                   21         22
    21  Cl   0.000000
    22  Cl   6.900988   0.000000
 Stoichiometry    C12H6Cl4
 Framework group  C1[X(C12H6Cl4)]
 Deg. of freedom    60
 Full point group                 C1      NOp   1
 Largest Abelian subgroup         C1      NOp   1
 Largest concise Abelian subgroup C1      NOp   1
                         Standard orientation:                         
 ---------------------------------------------------------------------
 Center     Atomic      Atomic             Coordinates (Angstroms)
 Number     Number       Type             X           Y           Z
 ---------------------------------------------------------------------
      1          6           0        0.991656    0.000000    0.000002
      2          6           0        1.736173    1.197447   -0.000000
      3          6           0        3.136150    1.199802   -0.000002
      4          6           0        3.839912    0.000000   -0.000001
      5          6           0        3.136150   -1.199802    0.000004
      6          6           0        1.736173   -1.197447    0.000005
      7          6           0       -0.592866    0.000000    0.000003
      8          6           0       -1.360199    1.213936    0.000003
      9          6           0       -2.758734    1.195972    0.000002
     10          6           0       -3.457457    0.000000    0.000001
     11          6           0       -2.758734   -1.195972    0.000000
     12          6           0       -1.360199   -1.213936    0.000001
     13          1           0        1.239517    2.132284   -0.000003
     14          1           0        3.668649    2.130714   -0.000004
     15          1           0        3.668649   -2.130714    0.000007
     16          1           0        1.239517   -2.132284    0.000008
     17          1           0       -3.298295    2.122572    0.000002
     18          1           0       -3.298295   -2.122572   -0.000003
     19         17           0       -0.690484   -2.838795   -0.000002
     20         17           0       -5.215544    0.000000   -0.000002
     21         17           0        5.599578    0.000000   -0.000003
     22         17           0       -0.690484    2.838795   -0.000000
 ---------------------------------------------------------------------
 Rotational constants (GHZ):           0.6926178           0.1681809           0.1353221
 Standard basis: 6-311+G(d,p) (5D, 7F)
 There are   436 symmetry adapted cartesian basis functions of A   symmetry.
 There are   420 symmetry adapted basis functions of A   symmetry.
   420 basis functions,   692 primitive gaussians,   436 cartesian basis functions
    73 alpha electrons       73 beta electrons
       nuclear repulsion energy      1410.0865974042 Hartrees.
 NAtoms=   22 NActive=   22 NUniq=   22 SFac= 1.00D+00 NAtFMM=   60 NAOKFM=F Big=F
 Integral buffers will be    131072 words long.
 Raffenetti 2 integral format.
 Two-electron integral symmetry is turned on.
 One-electron integrals computed using PRISM.
 NBasis=   420 RedAO= T EigKep=  2.45D-06  NBF=   420
 NBsUse=   414 1.00D-06 EigRej=  8.89D-07 NBFU=   414
 Initial guess from the checkpoint file:  "/scratch/gour/Gau-24351.chk"
 B after Tr=     0.000000   -0.000000   -0.000000
         Rot=    1.000000    0.000000   -0.000000    0.000000 Ang=   0.00 deg.
 ExpMin= 4.38D-02 ExpMax= 1.06D+05 ExpMxC= 3.62D+03 IAcc=3 IRadAn=         5 AccDes= 0.00D+00
 Harris functional with IExCor=  402 and IRadAn=       5 diagonalized for initial guess.
 HarFok:  IExCor=  402 AccDes= 0.00D+00 IRadAn=         5 IDoV= 1 UseB2=F ITyADJ=14
 ICtDFT=  3500011 ScaDFX=  1.000000  1.000000  1.000000  1.000000
 FoFCou: FMM=F IPFlag=           0 FMFlag=      100000 FMFlg1=           0
         NFxFlg=           0 DoJE=T BraDBF=F KetDBF=T FulRan=T
         wScrn=  0.000000 ICntrl=       500 IOpCl=  0 I1Cent=   200000004 NGrid=           0
         NMat0=    1 NMatS0=      1 NMatT0=    0 NMatD0=    1 NMtDS0=    0 NMtDT0=    0
 Petite list used in FoFCou.
 Requested convergence on RMS density matrix=1.00D-08 within  32 cycles.
 Requested convergence on MAX density matrix=1.00D-06.
 Requested convergence on             energy=1.00D-06.
 No special actions if energy rises.
 SCF Done:  E(RB3LYP) =  -2301.86426601     A.U. after   15 cycles
            NFock= 15  Conv=0.41D-08     -V/T= 2.0028
 QCSCF skips out because SCF is already converged.
 Calling FoFJK, ICntrl=      2127 FMM=F ISym2X=0 I1Cent= 0 IOpClX= 0 NMat=1 NMatS=1 NMatT=0.
 ***** Axes restored to original set *****
 -------------------------------------------------------------------
 Center     Atomic                   Forces (Hartrees/Bohr)
 Number     Number              X              Y              Z
 -------------------------------------------------------------------
      1        6          -0.013753587   -0.023498224    0.000117916
      2        6          -0.005082293    0.019729101    0.005379843
      3        6          -0.008923163   -0.002558164    0.002459442
      4        6          -0.003112762   -0.005318069    0.000026503
      5        6           0.002128345   -0.009051032   -0.002401011
      6        6           0.019666808    0.005188757   -0.005504847
      7        6           0.018395813    0.031429566   -0.000157693
      8        6          -0.021670959    0.005026377    0.008083736
      9        6           0.002123273    0.002227550   -0.000281267
     10        6           0.003349902    0.005723328   -0.000028697
     11        6           0.000903690    0.002944072    0.000255333
     12        6           0.014958937   -0.016494040   -0.008026138
     13        1           0.006749700    0.002028105   -0.001842869
     14        1           0.006935807   -0.000731643   -0.002422434
     15        1          -0.004023628    0.005707130    0.002397491
     16        1          -0.001528895    0.006891858    0.001797937
     17        1           0.003995226   -0.004904604   -0.002237350
     18        1          -0.006222882    0.001098633    0.002256430
     19       17          -0.013172382   -0.010714847    0.002327456
     20       17           0.002601414    0.004444615   -0.000022372
     21       17          -0.001416263   -0.002419725    0.000012161
     22       17          -0.002902100   -0.016748743   -0.002189571
 -------------------------------------------------------------------
 Cartesian Forces:  Max     0.031429566 RMS     0.008951579

 GradGradGradGradGradGradGradGradGradGradGradGradGradGradGradGradGradGrad
 Berny optimization.
 Using GEDIIS/GDIIS optimizer.
 FormGI is forming the generalized inverse of G from B-inverse, IUseBI=4.
 Internal  Forces:  Max     0.035427267 RMS     0.007910374
 Search for a local minimum.
 Step number   2 out of a maximum of  121
 All quantities printed in internal units (Hartrees-Bohrs-Radians)
 Mixed Optimization -- RFO/linear search
 Update second derivatives using D2CorX and points    1    2
 DE= -8.01D-02 DEPred=-1.48D-01 R= 5.41D-01
 TightC=F SS=  1.41D+00  RLast= 3.00D-01 DXNew= 5.0454D-01 8.9996D-01
 Trust test= 5.41D-01 RLast= 3.00D-01 DXMaxT set to 5.05D-01
 ITU=  1  0
 Use linear search instead of GDIIS.
     Eigenvalues ---    0.00237   0.01460   0.01467   0.02070   0.02070
     Eigenvalues ---    0.02070   0.02070   0.02070   0.02070   0.02070
     Eigenvalues ---    0.02070   0.02070   0.02070   0.02070   0.02070
     Eigenvalues ---    0.02070   0.02070   0.02070   0.02070   0.15999
     Eigenvalues ---    0.16000   0.16000   0.16000   0.16000   0.16089
     Eigenvalues ---    0.22000   0.23025   0.23455   0.23492   0.24105
     Eigenvalues ---    0.24979   0.25000   0.25000   0.25000   0.25000
     Eigenvalues ---    0.25000   0.27840   0.29535   0.29536   0.29539
     Eigenvalues ---    0.29539   0.36256   0.37195   0.37230   0.37230
     Eigenvalues ---    0.37230   0.37230   0.38326   0.41103   0.41429
     Eigenvalues ---    0.41788   0.45065   0.45340   0.45389   0.45389
     Eigenvalues ---    0.45389   0.45389   0.45389   0.45389   1.58614
 RFO step:  Lambda=-1.18351438D-02 EMin= 2.36824129D-03
 Quartic linear search produced a step of  0.36037.
 Iteration  1 RMS(Cart)=  0.03652262 RMS(Int)=  0.00127072
 Iteration  2 RMS(Cart)=  0.00144343 RMS(Int)=  0.00013130
 Iteration  3 RMS(Cart)=  0.00000030 RMS(Int)=  0.00013130
 Variable       Old X    -DE/DX   Delta X   Delta X   Delta X     New X
                                 (Linear)    (Quad)   (Total)
    R1        2.66457   0.00335   0.00588  -0.00646  -0.00049   2.66408
    R2        2.66457   0.00335   0.00588  -0.00646  -0.00049   2.66408
    R3        2.99431  -0.00467   0.03032  -0.11547  -0.08515   2.90916
    R4        2.64558  -0.00831  -0.00097  -0.02147  -0.02244   2.62314
    R5        2.00042   0.00211  -0.00778   0.03059   0.02281   2.02324
    R6        2.62856  -0.00849  -0.00710  -0.00498  -0.01218   2.61638
    R7        2.02664   0.00733   0.00167   0.02099   0.02266   2.04930
    R8        2.62856  -0.00849  -0.00710  -0.00498  -0.01218   2.61638
    R9        3.32529  -0.00280  -0.00023  -0.01171  -0.01193   3.31335
   R10        2.64558  -0.00831  -0.00097  -0.02147  -0.02244   2.62314
   R11        2.02664   0.00733   0.00167   0.02099   0.02266   2.04930
   R12        2.00042   0.00211  -0.00778   0.03059   0.02281   2.02324
   R13        2.71387   0.00988   0.02364  -0.03757  -0.01366   2.70021
   R14        2.71387   0.00988   0.02364  -0.03757  -0.01366   2.70021
   R15        2.64307  -0.00691  -0.00187  -0.01474  -0.01661   2.62646
   R16        3.32113  -0.00017  -0.00173   0.00455   0.00283   3.32395
   R17        2.61750  -0.01239  -0.01109  -0.00610  -0.01745   2.60005
   R18        2.02625   0.00659   0.00153   0.01876   0.02029   2.04655
   R19        2.61750  -0.01239  -0.01109  -0.00610  -0.01745   2.60005
   R20        3.32230  -0.00515  -0.00130  -0.01878  -0.02008   3.30222
   R21        2.64307  -0.00691  -0.00187  -0.01474  -0.01661   2.62646
   R22        2.02625   0.00659   0.00153   0.01876   0.02029   2.04655
   R23        3.32113  -0.00017  -0.00173   0.00455   0.00283   3.32395
    A1        2.02907  -0.01612  -0.02354  -0.00769  -0.03104   1.99803
    A2        2.12706   0.00806   0.01177   0.00385   0.01552   2.14258
    A3        2.12706   0.00806   0.01177   0.00385   0.01552   2.14258
    A4        2.12874   0.00841   0.01238   0.00886   0.02133   2.15007
    A5        2.09698   0.00277   0.00093   0.02569   0.02658   2.12356
    A6        2.05747  -0.01118  -0.01331  -0.03456  -0.04791   2.00956
    A7        2.09960  -0.00017   0.00187  -0.01001  -0.00823   2.09137
    A8        2.09207  -0.00080  -0.00084  -0.00234  -0.00313   2.08894
    A9        2.09152   0.00097  -0.00104   0.01235   0.01136   2.10288
   A10        2.08063  -0.00037  -0.00496   0.00998   0.00483   2.08546
   A11        2.10128   0.00019   0.00248  -0.00499  -0.00242   2.09886
   A12        2.10128   0.00019   0.00248  -0.00499  -0.00242   2.09886
   A13        2.09960  -0.00017   0.00187  -0.01001  -0.00823   2.09137
   A14        2.09152   0.00097  -0.00104   0.01235   0.01136   2.10288
   A15        2.09207  -0.00080  -0.00084  -0.00234  -0.00313   2.08894
   A16        2.12874   0.00841   0.01238   0.00886   0.02133   2.15007
   A17        2.09698   0.00277   0.00093   0.02569   0.02658   2.12356
   A18        2.05747  -0.01118  -0.01331  -0.03456  -0.04791   2.00956
   A19        2.13449   0.01386   0.01445   0.02262   0.03677   2.17126
   A20        2.13449   0.01386   0.01445   0.02262   0.03677   2.17126
   A21        2.01421  -0.02771  -0.02890  -0.04523  -0.07354   1.94067
   A22        2.12164   0.01394   0.00982   0.04482   0.05491   2.17655
   A23        2.18695   0.02149   0.03335   0.00370   0.03692   2.22387
   A24        1.97459  -0.03543  -0.04317  -0.04853  -0.09183   1.88276
   A25        2.11238   0.00048   0.00648  -0.02191  -0.01571   2.09668
   A26        2.08526  -0.00154  -0.00329   0.00085  -0.00230   2.08295
   A27        2.08554   0.00106  -0.00319   0.02106   0.01801   2.10356
   A28        2.08411  -0.00112  -0.00371  -0.00060  -0.00487   2.07924
   A29        2.09954   0.00056   0.00185   0.00030   0.00243   2.10197
   A30        2.09954   0.00056   0.00185   0.00030   0.00243   2.10197
   A31        2.11238   0.00048   0.00648  -0.02191  -0.01571   2.09668
   A32        2.08554   0.00106  -0.00319   0.02106   0.01801   2.10356
   A33        2.08526  -0.00154  -0.00329   0.00085  -0.00230   2.08295
   A34        2.12164   0.01394   0.00982   0.04482   0.05491   2.17655
   A35        2.18695   0.02149   0.03335   0.00370   0.03692   2.22387
   A36        1.97459  -0.03543  -0.04317  -0.04853  -0.09183   1.88276
    D1        0.00000  -0.00000   0.00000  -0.00000  -0.00000   0.00000
    D2        3.14159   0.00000   0.00000   0.00000   0.00000  -3.14159
    D3       -3.14159  -0.00000  -0.00000  -0.00000  -0.00000   3.14159
    D4       -0.00000  -0.00000  -0.00000   0.00000   0.00000  -0.00000
    D5       -0.00000   0.00000  -0.00000   0.00000   0.00000  -0.00000
    D6        3.14159  -0.00000  -0.00000  -0.00000  -0.00000   3.14159
    D7        3.14159   0.00000   0.00000   0.00000   0.00000  -3.14159
    D8       -0.00000  -0.00000  -0.00000  -0.00000  -0.00000  -0.00000
    D9       -0.00000  -0.00000  -0.00000  -0.00001  -0.00001  -0.00002
   D10        3.14159  -0.00000  -0.00000  -0.00001  -0.00001   3.14158
   D11        3.14159  -0.00000  -0.00000  -0.00001  -0.00002   3.14158
   D12       -0.00000  -0.00000  -0.00000  -0.00001  -0.00001  -0.00002
   D13        0.00000  -0.00000  -0.00000  -0.00000  -0.00000  -0.00000
   D14        3.14159   0.00000  -0.00000   0.00000   0.00000   3.14159
   D15       -3.14159  -0.00000  -0.00000  -0.00000  -0.00000  -3.14159
   D16        0.00000  -0.00000  -0.00000  -0.00000  -0.00000   0.00000
   D17       -0.00000   0.00000   0.00000   0.00000   0.00000  -0.00000
   D18        3.14159   0.00000   0.00000   0.00000   0.00000   3.14159
   D19        3.14159   0.00000  -0.00000   0.00000   0.00000   3.14159
   D20        0.00000  -0.00000  -0.00000  -0.00000  -0.00000  -0.00000
   D21        0.00000  -0.00000   0.00000  -0.00000  -0.00000   0.00000
   D22       -3.14159  -0.00000   0.00000  -0.00000  -0.00000  -3.14159
   D23       -3.14159  -0.00000  -0.00000   0.00000   0.00000  -3.14159
   D24        0.00000   0.00000   0.00000   0.00000   0.00000   0.00000
   D25       -0.00000   0.00000   0.00000   0.00000   0.00000   0.00000
   D26        3.14159   0.00000   0.00000   0.00000   0.00000  -3.14159
   D27        3.14159   0.00000  -0.00000   0.00000   0.00000   3.14159
   D28       -0.00000   0.00000   0.00000   0.00000   0.00000   0.00000
   D29        3.14159   0.00000   0.00000   0.00000   0.00000  -3.14159
   D30        0.00000  -0.00000   0.00000  -0.00000  -0.00000   0.00000
   D31        0.00000   0.00000   0.00000   0.00000   0.00000   0.00000
   D32       -3.14159  -0.00000  -0.00000  -0.00000  -0.00000   3.14159
   D33       -3.14159  -0.00000  -0.00000  -0.00000  -0.00000   3.14159
   D34       -0.00000  -0.00000  -0.00000  -0.00000  -0.00000  -0.00000
   D35       -0.00000   0.00000   0.00000   0.00000   0.00000  -0.00000
   D36        3.14159  -0.00000  -0.00000   0.00000   0.00000   3.14159
   D37       -0.00000  -0.00000  -0.00000  -0.00000  -0.00000  -0.00000
   D38        3.14159  -0.00000  -0.00000  -0.00000  -0.00000   3.14159
   D39        3.14159   0.00000   0.00000   0.00000   0.00000  -3.14159
   D40       -0.00000   0.00000   0.00000   0.00000   0.00000   0.00000
   D41       -0.00000   0.00000   0.00000   0.00000   0.00000   0.00000
   D42       -3.14159  -0.00000  -0.00000  -0.00000  -0.00000  -3.14159
   D43        3.14159   0.00000   0.00000   0.00000   0.00000  -3.14159
   D44        0.00000  -0.00000   0.00000  -0.00000  -0.00000   0.00000
   D45        0.00000   0.00000   0.00000   0.00000   0.00000   0.00000
   D46       -3.14159  -0.00000  -0.00000  -0.00000  -0.00000  -3.14159
   D47        3.14159   0.00000   0.00000   0.00000   0.00000  -3.14159
   D48        0.00000  -0.00000   0.00000  -0.00000  -0.00000   0.00000
   D49        0.00000  -0.00000  -0.00000  -0.00000  -0.00000  -0.00000
   D50       -3.14159  -0.00000   0.00000  -0.00000  -0.00000  -3.14159
   D51        3.14159   0.00000   0.00000   0.00000   0.00000   3.14159
   D52       -0.00000   0.00000   0.00000   0.00000   0.00000   0.00000
         Item               Value     Threshold  Converged?
 Maximum Force            0.035427     0.000450     NO 
 RMS     Force            0.007910     0.000300     NO 
 Maximum Displacement     0.207014     0.001800     NO 
 RMS     Displacement     0.036813     0.001200     NO 
 Predicted change in Energy=-2.631649D-03
 GradGradGradGradGradGradGradGradGradGradGradGradGradGradGradGradGradGrad

                          Input orientation:                          
 ---------------------------------------------------------------------
 Center     Atomic      Atomic             Coordinates (Angstroms)
 Number     Number       Type             X           Y           Z
 ---------------------------------------------------------------------
      1          6           0        0.400471    0.350270   -0.003035
      2          6           0        1.741591    0.447127   -0.426674
      3          6           0        2.451135    1.640143   -0.436380
      4          6           0        1.839366    2.808657   -0.015384
      5          6           0        0.522822    2.773045    0.411660
      6          6           0       -0.169948    1.570175    0.413989
      7          6           0       -0.377162   -0.978334    0.003638
      8          6           0        0.165468   -2.233507   -0.410877
      9          6           0       -0.530652   -3.436469   -0.407466
     10          6           0       -1.839094   -3.476075    0.016177
     11          6           0       -2.443427   -2.312696    0.433782
     12          6           0       -1.735437   -1.116707    0.425150
     13          1           0        2.286802   -0.409115   -0.767097
     14          1           0        3.481600    1.649441   -0.774118
     15          1           0        0.027806    3.678578    0.744803
[...]

 **********************************************************************

            Population analysis using the SCF Density.

 **********************************************************************

 Orbital symmetries:
       Occupied  (A) (A) (A) (A) (A) (A) (A) (A) (A) (A) (A) (A)
                 (A) (A) (A) (A) (A) (A) (A) (A) (A) (A) (A) (A)
                 (A) (A) (A) (A) (A) (A) (A) (A) (A) (A) (A) (A)
                 (A) (A) (A) (A) (A) (A) (A) (A) (A) (A) (A) (A)
                 (A) (A) (A) (A) (A) (A) (A) (A) (A) (A) (A) (A)
                 (A) (A) (A) (A) (A) (A) (A) (A) (A) (A) (A) (A)
                 (A)
       Virtual   (A) (A) (A) (A) (A) (A) (A) (A) (A) (A) (A) (A)
                 (A) (A) (A) (A) (A) (A) (A) (A) (A) (A) (A) (A)
                 (A) (A) (A) (A) (A) (A) (A) (A) (A) (A) (A) (A)
                 (A) (A) (A) (A) (A) (A) (A) (A) (A) (A) (A) (A)
                 (A) (A) (A) (A) (A) (A) (A) (A) (A) (A) (A) (A)
                 (A) (A) (A) (A) (A) (A) (A) (A) (A) (A) (A) (A)
                 (A) (A) (A) (A) (A) (A) (A) (A) (A) (A) (A) (A)
                 (A) (A) (A) (A) (A) (A) (A) (A) (A) (A) (A) (A)
                 (A) (A) (A) (A) (A) (A) (A) (A) (A) (A) (A) (A)
                 (A) (A) (A) (A) (A) (A) (A) (A) (A) (A) (A) (A)
                 (A) (A) (A) (A) (A) (A) (A) (A) (A) (A) (A) (A)
                 (A) (A) (A) (A) (A) (A) (A) (A) (A) (A) (A) (A)
                 (A) (A) (A) (A) (A) (A) (A) (A) (A) (A) (A) (A)
                 (A) (A) (A) (A) (A) (A) (A) (A) (A) (A) (A) (A)
                 (A) (A) (A) (A) (A) (A) (A) (A) (A) (A) (A) (A)
                 (A) (A) (A) (A) (A) (A) (A) (A) (A) (A) (A) (A)
                 (A) (A) (A) (A) (A) (A) (A) (A) (A) (A) (A) (A)
                 (A) (A) (A) (A) (A) (A) (A) (A) (A) (A) (A) (A)
                 (A) (A) (A) (A) (A) (A) (A) (A) (A) (A) (A) (A)
                 (A) (A) (A) (A) (A) (A) (A) (A) (A) (A) (A) (A)
                 (A) (A) (A) (A) (A) (A) (A) (A) (A) (A) (A) (A)
                 (A) (A) (A) (A) (A) (A) (A) (A) (A) (A) (A) (A)
                 (A) (A) (A) (A) (A) (A) (A) (A) (A) (A) (A) (A)
                 (A) (A) (A) (A) (A) (A) (A) (A) (A) (A) (A) (A)
                 (A) (A) (A) (A) (A) (A) (A) (A) (A) (A) (A) (A)
                 (A) (A) (A) (A) (A) (A) (A) (A) (A) (A) (A) (A)
                 (A) (A) (A) (A) (A) (A) (A) (A) (A) (A) (A) (A)
                 (A) (A) (A) (A) (A) (A) (A) (A) (A) (A) (A) (A)
                 (A) (A) (A) (A) (A) (A) (A) (A)
 The electronic state is 1-A.
 Alpha  occ. eigenvalues -- -101.57507-101.57265-101.57265-101.56113 -10.27143
 Alpha  occ. eigenvalues --  -10.27143 -10.26968 -10.25120 -10.23044 -10.21676
 Alpha  occ. eigenvalues --  -10.21675 -10.21192 -10.20137 -10.20135 -10.20057
 Alpha  occ. eigenvalues --  -10.20057  -9.48960  -9.48732  -9.48732  -9.47570
 Alpha  occ. eigenvalues --   -7.25434  -7.25206  -7.25206  -7.24438  -7.24399
 Alpha  occ. eigenvalues --   -7.24217  -7.24217  -7.24157  -7.24157  -7.24029
 Alpha  occ. eigenvalues --   -7.23055  -7.23019  -0.94342  -0.90817  -0.89678
 Alpha  occ. eigenvalues --   -0.89558  -0.85614  -0.83248  -0.78984  -0.77672
 Alpha  occ. eigenvalues --   -0.76484  -0.73365  -0.64202  -0.64035  -0.63526
 Alpha  occ. eigenvalues --   -0.60776  -0.55760  -0.53181  -0.51706  -0.49670
 Alpha  occ. eigenvalues --   -0.48864  -0.47950  -0.46434  -0.45410  -0.45142
 Alpha  occ. eigenvalues --   -0.44060  -0.42249  -0.41802  -0.40530  -0.38671
 Alpha  occ. eigenvalues --   -0.38459  -0.38227  -0.37738  -0.35010  -0.33981
 Alpha  occ. eigenvalues --   -0.33948  -0.32690  -0.32604  -0.32443  -0.28169
 Alpha  occ. eigenvalues --   -0.27404  -0.27333  -0.26161
 Alpha virt. eigenvalues --   -0.05619  -0.05219  -0.03937  -0.03557  -0.03109
 Alpha virt. eigenvalues --   -0.00895   0.00535   0.00877   0.01416   0.01518
 Alpha virt. eigenvalues --    0.01647   0.02092   0.03033   0.03870   0.04358
 Alpha virt. eigenvalues --    0.05145   0.05435   0.06078   0.06226   0.06557
 Alpha virt. eigenvalues --    0.06884   0.08327   0.08445   0.08667   0.09006
 Alpha virt. eigenvalues --    0.09069   0.09114   0.10177   0.10944   0.11322
 Alpha virt. eigenvalues --    0.11391   0.11709   0.11740   0.11968   0.12648
 Alpha virt. eigenvalues --    0.12848   0.13379   0.13756   0.14587   0.14921
 Alpha virt. eigenvalues --    0.15158   0.15195   0.15385   0.15806   0.16423
 Alpha virt. eigenvalues --    0.16944   0.16964   0.17983   0.18509   0.18855
 Alpha virt. eigenvalues --    0.19048   0.19408   0.19582   0.20525   0.20633
 Alpha virt. eigenvalues --    0.21088   0.21357   0.21721   0.22221   0.22245
 Alpha virt. eigenvalues --    0.22320   0.22649   0.23406   0.23662   0.24432
 Alpha virt. eigenvalues --    0.24520   0.25249   0.26129   0.26189   0.26555
 Alpha virt. eigenvalues --    0.26619   0.27169   0.27657   0.27677   0.28713
 Alpha virt. eigenvalues --    0.28856   0.29113   0.30263   0.30928   0.31358
 Alpha virt. eigenvalues --    0.31634   0.33054   0.33428   0.33795   0.35009
 Alpha virt. eigenvalues --    0.36924   0.39591   0.40856   0.44196   0.44372
 Alpha virt. eigenvalues --    0.44642   0.44977   0.45056   0.45743   0.46253
 Alpha virt. eigenvalues --    0.47027   0.47454   0.47720   0.50095   0.50450
 Alpha virt. eigenvalues --    0.50665   0.51651   0.52954   0.53506   0.54362
 Alpha virt. eigenvalues --    0.55511   0.56036   0.56801   0.56867   0.57511
 Alpha virt. eigenvalues --    0.58695   0.59171   0.59666   0.61032   0.61947
 Alpha virt. eigenvalues --    0.62042   0.62208   0.64437   0.65042   0.65648
 Alpha virt. eigenvalues --    0.65868   0.65874   0.67012   0.67874   0.67915
 Alpha virt. eigenvalues --    0.69000   0.69248   0.70163   0.71035   0.71425
 Alpha virt. eigenvalues --    0.73584   0.73635   0.75504   0.79533   0.81405
 Alpha virt. eigenvalues --    0.81879   0.82815   0.83252   0.83375   0.83405
 Alpha virt. eigenvalues --    0.83805   0.84021   0.84416   0.85185   0.85376
 Alpha virt. eigenvalues --    0.85501   0.85646   0.85662   0.86208   0.86785
 Alpha virt. eigenvalues --    0.87231   0.87652   0.90065   0.90459   0.91404
 Alpha virt. eigenvalues --    0.92326   0.92710   0.94859   0.95084   0.95407
 Alpha virt. eigenvalues --    0.95527   0.95870   0.96487   0.96955   0.98848
 Alpha virt. eigenvalues --    0.99489   1.00944   1.02403   1.02595   1.03062
 Alpha virt. eigenvalues --    1.05485   1.05963   1.06972   1.09678   1.12200
 Alpha virt. eigenvalues --    1.12584   1.18440   1.18899   1.19290   1.20875
 Alpha virt. eigenvalues --    1.23356   1.23835   1.24409   1.26494   1.28086
 Alpha virt. eigenvalues --    1.30219   1.30579   1.30841   1.31999   1.33403
 Alpha virt. eigenvalues --    1.40349   1.41706   1.43547   1.48068   1.49086
 Alpha virt. eigenvalues --    1.49828   1.54067   1.54295   1.54297   1.54370
 Alpha virt. eigenvalues --    1.56222   1.58397   1.59609   1.59679   1.61355
 Alpha virt. eigenvalues --    1.65068   1.65640   1.67799   1.68201   1.71333
 Alpha virt. eigenvalues --    1.71687   1.75635   1.77439   1.78276   1.82278
 Alpha virt. eigenvalues --    1.82616   1.82861   1.84183   1.86863   1.89880
 Alpha virt. eigenvalues --    1.92692   1.93105   1.93682   1.93716   1.94173
 Alpha virt. eigenvalues --    1.94935   1.97141   1.98514   2.00349   2.04522
 Alpha virt. eigenvalues --    2.05101   2.05297   2.06066   2.06256   2.12522
 Alpha virt. eigenvalues --    2.12566   2.16767   2.19057   2.23222   2.25792
 Alpha virt. eigenvalues --    2.26186   2.26402   2.26754   2.28062   2.29084
 Alpha virt. eigenvalues --    2.33275   2.36577   2.38494   2.38889   2.40950
 Alpha virt. eigenvalues --    2.41094   2.41454   2.46195   2.49404   2.49419
 Alpha virt. eigenvalues --    2.51313   2.52921   2.54339   2.54825   2.58155
 Alpha virt. eigenvalues --    2.62344   2.64119   2.65095   2.67543   2.69754
 Alpha virt. eigenvalues --    2.69978   2.70336   2.71320   2.72837   2.73176
 Alpha virt. eigenvalues --    2.74860   2.75234   2.75646   2.75944   2.76059
 Alpha virt. eigenvalues --    2.78642   2.83521   2.83571   2.84724   2.87807
 Alpha virt. eigenvalues --    2.90492   2.92299   2.96746   3.00215   3.08877
 Alpha virt. eigenvalues --    3.09970   3.10038   3.12477   3.14389   3.14922
 Alpha virt. eigenvalues --    3.20458   3.21502   3.27890   3.32057   3.32494
 Alpha virt. eigenvalues --    3.41949   3.47113   3.47633   3.58850   3.60206
 Alpha virt. eigenvalues --    3.69879   3.70325   3.77770   3.82431   3.96692
 Alpha virt. eigenvalues --    3.98048   4.07375   4.12646   4.14186   4.34919
 Alpha virt. eigenvalues --    4.80000   4.82716   9.76040   9.77545   9.79644
 Alpha virt. eigenvalues --    9.83113  23.40759  23.60354  23.84359  23.85353
 Alpha virt. eigenvalues --   23.89996  23.93998  23.96652  24.03424  24.07532
 Alpha virt. eigenvalues --   24.07942  24.10668  24.17091  25.81585  25.82814
 Alpha virt. eigenvalues --   25.84568  25.91133  26.09612  26.11943  26.22476
 Alpha virt. eigenvalues --   26.32115  26.58039  26.60164  26.60768  26.78876
 Alpha virt. eigenvalues --  215.75100 215.76622 215.79218 215.83521
          Condensed to atoms (all electrons):
               1          2          3          4          5          6
     1  C   23.920857  -0.786077  -0.525198  -6.493626  -0.524999  -0.785451
     2  C   -0.786077  25.387706  -4.631684   3.367469  -4.538942  -3.652131
     3  C   -0.525198  -4.631684  22.633885  -4.695595  -6.348984  -4.539064
     4  C   -6.493626   3.367469  -4.695595  19.869340  -4.695703   3.367403
     5  C   -0.524999  -4.538942  -6.348984  -4.695703  22.633272  -4.630534
     6  C   -0.785451  -3.652131  -4.539064   3.367403  -4.630534  25.387149
     7  C    5.014043  -2.572021   1.869069  -1.966318   1.869115  -2.572729
     8  C   -3.542988  -2.268943   1.036860  -1.086056   1.036723  -2.270646
     9  C   -3.331597  -0.877691   0.298575  -0.234931   0.298660  -0.882202
    10  C   -0.901698  -0.384000   0.083418  -0.071870   0.083415  -0.384110
    11  C   -3.331136  -0.881897   0.298695  -0.234876   0.298418  -0.877639
    12  C   -3.542664  -2.270220   1.036767  -1.085912   1.036504  -2.268781
    13  H    0.058766   0.187810  -0.000631  -0.064728  -0.000462  -0.007964
    14  H    0.011268  -0.023422   0.253568   0.072261   0.062226  -0.021925
    15  H    0.011274  -0.021919   0.062218   0.072261   0.253578  -0.023431
    16  H    0.058764  -0.007966  -0.000460  -0.064731  -0.000628   0.187796
    17  H    0.031124   0.000897  -0.000417   0.000050  -0.000417   0.000905
    18  H    0.031124   0.000903  -0.000417   0.000050  -0.000417   0.000899
    19  Cl   0.059877   0.318501  -0.018232   0.071588  -0.017625   0.317245
    20  Cl  -0.042349  -0.019441   0.004920  -0.001517   0.004918  -0.019451
    21  Cl  -0.292280   0.407739  -0.007504  -1.115555  -0.007612   0.407789
    22  Cl   0.059917   0.317198  -0.017611   0.071591  -0.018274   0.318580
               7          8          9         10         11         12
     1  C    5.014043  -3.542988  -3.331597  -0.901698  -3.331136  -3.542664
     2  C   -2.572021  -2.268943  -0.877691  -0.384000  -0.881897  -2.270220
     3  C    1.869069   1.036860   0.298575   0.083418   0.298695   1.036767
     4  C   -1.966318  -1.086056  -0.234931  -0.071870  -0.234876  -1.085912
     5  C    1.869115   1.036723   0.298660   0.083415   0.298418   1.036504
     6  C   -2.572729  -2.270646  -0.882202  -0.384110  -0.877639  -2.268781
     7  C   15.416030  -0.315352  -4.366939  -1.079749  -4.365879  -0.315854
     8  C   -0.315352  17.148801  -4.428342  -1.953454   6.588528  -3.105842
     9  C   -4.366939  -4.428342  26.040637  -1.303350 -11.504145   6.588767
    10  C   -1.079749  -1.953454  -1.303350  15.910640  -1.303784  -1.953357
    11  C   -4.365879   6.588528 -11.504145  -1.303784  26.039543  -4.428376
    12  C   -0.315854  -3.105842   6.588767  -1.953357  -4.428376  17.148214
    13  H    0.036817   0.057687   0.012650   0.005926   0.012681   0.057654
    14  H   -0.000759   0.001015  -0.000085   0.000060  -0.000087   0.001007
    15  H   -0.000762   0.001007  -0.000087   0.000060  -0.000085   0.001016
    16  H    0.036830   0.057659   0.012685   0.005926   0.012647   0.057684
    17  H    0.107361   0.063470   0.094254   0.035964   0.055219  -0.032191
    18  H    0.107350  -0.032191   0.055217   0.035973   0.094271   0.063459
    19  Cl  -0.581344  -0.800864   0.676582  -0.292187  -0.907485   0.239187
    20  Cl  -0.014224  -0.082039   0.253701  -0.978053   0.253667  -0.082029
    21  Cl  -0.072757  -0.034179  -0.001771  -0.000979  -0.001771  -0.034176
    22  Cl  -0.581245   0.239114  -0.907519  -0.292177   0.676572  -0.800891
              13         14         15         16         17         18
     1  C    0.058766   0.011268   0.011274   0.058764   0.031124   0.031124
     2  C    0.187810  -0.023422  -0.021919  -0.007966   0.000897   0.000903
     3  C   -0.000631   0.253568   0.062218  -0.000460  -0.000417  -0.000417
     4  C   -0.064728   0.072261   0.072261  -0.064731   0.000050   0.000050
     5  C   -0.000462   0.062226   0.253578  -0.000628  -0.000417  -0.000417
     6  C   -0.007964  -0.021925  -0.023431   0.187796   0.000905   0.000899
     7  C    0.036817  -0.000759  -0.000762   0.036830   0.107361   0.107350
     8  C    0.057687   0.001015   0.001007   0.057659   0.063470  -0.032191
     9  C    0.012650  -0.000085  -0.000087   0.012685   0.094254   0.055217
    10  C    0.005926   0.000060   0.000060   0.005926   0.035964   0.035973
    11  C    0.012681  -0.000087  -0.000085   0.012647   0.055219   0.094271
    12  C    0.057654   0.001007   0.001016   0.057684  -0.032191   0.063459
    13  H    0.537025  -0.007682   0.000062  -0.000049   0.000000   0.000000
    14  H   -0.007682   0.513249  -0.000305   0.000062   0.000000   0.000000
    15  H    0.000062  -0.000305   0.513249  -0.007682   0.000000   0.000000
    16  H   -0.000049   0.000062  -0.007682   0.537026   0.000000   0.000000
    17  H    0.000000   0.000000   0.000000   0.000000   0.493466  -0.000223
    18  H    0.000000   0.000000   0.000000   0.000000  -0.000223   0.493465
    19  Cl  -0.006535  -0.000719  -0.000720  -0.006524   0.000261  -0.007117
    20  Cl   0.000098  -0.000001  -0.000001   0.000098  -0.013012  -0.013012
    21  Cl  -0.000906  -0.011699  -0.011699  -0.000907  -0.000001  -0.000001
    22  Cl  -0.006525  -0.000720  -0.000718  -0.006535  -0.007118   0.000261
              19         20         21         22
     1  C    0.059877  -0.042349  -0.292280   0.059917
     2  C    0.318501  -0.019441   0.407739   0.317198
     3  C   -0.018232   0.004920  -0.007504  -0.017611
     4  C    0.071588  -0.001517  -1.115555   0.071591
     5  C   -0.017625   0.004918  -0.007612  -0.018274
     6  C    0.317245  -0.019451   0.407789   0.318580
     7  C   -0.581344  -0.014224  -0.072757  -0.581245
     8  C   -0.800864  -0.082039  -0.034179   0.239114
     9  C    0.676582   0.253701  -0.001771  -0.907519
    10  C   -0.292187  -0.978053  -0.000979  -0.292177
    11  C   -0.907485   0.253667  -0.001771   0.676572
    12  C    0.239187  -0.082029  -0.034176  -0.800891
    13  H   -0.006535   0.000098  -0.000906  -0.006525
    14  H   -0.000719  -0.000001  -0.011699  -0.000720
    15  H   -0.000720  -0.000001  -0.011699  -0.000718
    16  H   -0.006524   0.000098  -0.000907  -0.006535
    17  H    0.000261  -0.013012  -0.000001  -0.007118
    18  H   -0.007117  -0.013012  -0.000001   0.000261
    19  Cl  17.653446  -0.028547   0.005367  -0.050269
    20  Cl  -0.028547  17.387538   0.000015  -0.028548
    21  Cl   0.005367   0.000015  17.394878   0.005366
    22  Cl  -0.050269  -0.028548   0.005366  17.653438
 Mulliken charges:
               1
     1  C    0.843048
     2  C   -1.051869
     3  C   -0.792178
     4  C    0.919405
     5  C   -0.792235
     6  C   -1.051709
     7  C    0.349316
     8  C   -0.309971
     9  C   -0.493070
    10  C    0.737386
    11  C   -0.493084
    12  C   -0.309968
    13  H    0.128306
    14  H    0.152686
    15  H    0.152686
    16  H    0.128305
    17  H    0.170405
    18  H    0.170404
    19  Cl   0.376116
    20  Cl   0.417266
    21  Cl   0.372642
    22  Cl   0.376112
 Sum of Mulliken charges =  -0.00000
 Mulliken charges with hydrogens summed into heavy atoms:
               1
     1  C    0.843048
     2  C   -0.923564
     3  C   -0.639492
     4  C    0.919405
     5  C   -0.639549
     6  C   -0.923404
     7  C    0.349316
     8  C   -0.309971
     9  C   -0.322665
    10  C    0.737386
    11  C   -0.322679
    12  C   -0.309968
    19  Cl   0.376116
    20  Cl   0.417266
    21  Cl   0.372642
    22  Cl   0.376112
 Electronic spatial extent (au):  <R**2>=           6603.4025
 Charge=             -0.0000 electrons
 Dipole moment (field-independent basis, Debye):
    X=             -1.0778    Y=              0.0000    Z=              0.0000  Tot=              1.0778
 Quadrupole moment (field-independent basis, Debye-Ang):
   XX=           -128.2913   YY=           -122.4338   ZZ=           -114.8101
   XY=             -0.0000   XZ=              0.0002   YZ=             -0.0044
 Traceless Quadrupole moment (field-independent basis, Debye-Ang):
   XX=             -6.4463   YY=             -0.5887   ZZ=              7.0350
   XY=             -0.0000   XZ=              0.0002   YZ=             -0.0044
 Octapole moment (field-independent basis, Debye-Ang**2):
  XXX=            -36.4975  YYY=              0.0003  ZZZ=             -0.0001  XYY=            -14.8583
  XXY=              0.0002  XXZ=              0.0005  XZZ=             18.2859  YZZ=              0.0000
  YYZ=             -0.0005  XYZ=             -0.0102
 Hexadecapole moment (field-independent basis, Debye-Ang**3):
 XXXX=          -7137.5638 YYYY=          -1465.3620 ZZZZ=           -360.5150 XXXY=              0.0012
 XXXZ=              0.0054 YYYX=              0.0003 YYYZ=              0.0172 ZZZX=              0.0010
 ZZZY=             -0.0243 XXYY=          -1378.3982 XXZZ=          -1187.1382 YYZZ=           -330.5576
 XXYZ=             -0.0297 YYXZ=              0.0005 ZZXY=              0.0000
 N-N= 1.426597347341D+03 E-N=-8.297548024587D+03  KE= 2.295551904141D+03
 1\1\GINC-LOCALHOST\FOpt\RB3LYP\6-311+G(d,p)\C12H6Cl4\GOUR\16-Mar-2022\
 0\\# opt b3lyp/6-311+g(d,p) scf=xqc\\Title Card Required\\0,1\C,0.3758
 867781,0.3084012138,-0.002983386\C,1.6394389134,0.3935497051,0.5871028
 919\C,2.3482653783,1.5916927168,0.5845442569\C,1.782349849,2.711571474
 1,-0.0155530558\C,0.5261004456,2.6518733862,-0.609490432\C,-0.17137744
 12,1.4471198594,-0.5994784198\C,-0.3779804471,-0.9797441994,0.00377605
 04\C,-0.2492767821,-1.9219744524,-1.0282190086\C,-0.9431114825,-3.1281
 326212,-1.0401571005\C,-1.7993070754,-3.408458194,0.0165319918\C,-1.96
 94186875,-2.5164512624,1.0670645238\C,-1.2577475675,-1.3209174324,1.04
 25024609\H,2.0765341256,-0.4817445739,1.0536166325\H,3.3270031987,1.65
 51391406,1.0423345845\H,0.0999904019,3.5326833333,-1.072230987\H,-1.15
 07031716,1.3959462396,-1.0611384462\H,-0.8157246615,-3.8272081233,-1.8
 543674357\H,-2.6375369028,-2.7413928532,1.8861439257\Cl,-1.4923974966,
 -0.213531721,2.3827545996\Cl,-2.684570112,-4.9212204629,0.0244892172\C
 l,2.6703926216,4.2288970935,-0.0235181224\Cl,0.8249944906,-1.594718419
 2,-2.3759869134\\Version=EM64L-G16RevB.01\State=1-A\HF=-2301.9024841\R
 MSD=2.575e-09\RMSF=1.094e-05\Dipole=-0.2141758,-0.3659558,0.0019133\Qu
 adrupole=1.6577255,-2.5960082,0.9382827,-3.7640535,2.1105216,-1.205179
 2\PG=C01 [X(C12H6Cl4)]\\@


 ONLY A FOOL KNOWS EVERYTHING.

               -- THE CHEMIST ANALYST, SEPTEMBER 1946
 Job cpu time:       0 days  9 hours 22 minutes 59.0 seconds.
 Elapsed time:       0 days  2 hours 21 minutes  9.8 seconds.
 File lengths (MBytes):  RWF=    116 Int=      0 D2E=      0 Chk=     19 Scr=      1
 Normal termination of Gaussian 16 at Wed Mar 16 02:01:10 2022.
