 Entering Gaussian System, Link 0=g16
 Input=2,4,4prime,5-Tetrachlorobiphenyl.gjf
 Output=2,4,4prime,5-Tetrachlorobiphenyl.log
 Initial command:
 /opt/g16/l1.exe "/scratch/gour/Gau-24246.inp" -scrdir="/scratch/gour/"
 Entering Link 1 = /opt/g16/l1.exe PID=     24247.
  
 Copyright (c) 1988-2017, Gaussian, Inc.  All Rights Reserved.
  
 This is part of the Gaussian(R) 16 program.  It is based on
 the Gaussian(R) 09 system (copyright 2009, Gaussian, Inc.),
 the Gaussian(R) 03 system (copyright 2003, Gaussian, Inc.),
 the Gaussian(R) 98 system (copyright 1998, Gaussian, Inc.),
 the Gaussian(R) 94 system (copyright 1995, Gaussian, Inc.),
 the Gaussian 92(TM) system (copyright 1992, Gaussian, Inc.),
 the Gaussian 90(TM) system (copyright 1990, Gaussian, Inc.),
 the Gaussian 88(TM) system (copyright 1988, Gaussian, Inc.),
 the Gaussian 86(TM) system (copyright 1986, Carnegie Mellon
 University), and the Gaussian 82(TM) system (copyright 1983,
 Carnegie Mellon University). Gaussian is a federally registered
 trademark of Gaussian, Inc.
  
 This software contains proprietary and confidential information,
 including trade secrets, belonging to Gaussian, Inc.
  
 This software is provided under written license and may be
 used, copied, transmitted, or stored only in accord with that
 written license.
  
 The following legend is applicable only to US Government
 contracts under FAR:
  
                    RESTRICTED RIGHTS LEGEND
  
 Use, reproduction and disclosure by the US Government is
 subject to restrictions as set forth in subparagraphs (a)
 and (c) of the Commercial Computer Software - Restricted
 Rights clause in FAR 52.227-19.
  
 Gaussian, Inc.
 340 Quinnipiac St., Bldg. 40, Wallingford CT 06492
  
  
 ---------------------------------------------------------------
 Warning -- This program may not be used in any manner that
 competes with the business of Gaussian, Inc. or will provide
 assistance to any competitor of Gaussian, Inc.  The licensee
 of this program is prohibited from giving any competitor of
 Gaussian, Inc. access to this program.  By using this program,
 the user acknowledges that Gaussian, Inc. is engaged in the
 business of creating and licensing software in the field of
 computational chemistry and represents and warrants to the
 licensee that it is not a competitor of Gaussian, Inc. and that
 it will not use this program in any manner prohibited above.
 ---------------------------------------------------------------
  

 Cite this work as:
 Gaussian 16, Revision B.01,
 M. J. Frisch, G. W. Trucks, H. B. Schlegel, G. E. Scuseria, 
 M. A. Robb, J. R. Cheeseman, G. Scalmani, V. Barone, 
 G. A. Petersson, H. Nakatsuji, X. Li, M. Caricato, A. V. Marenich, 
 J. Bloino, B. G. Janesko, R. Gomperts, B. Mennucci, H. P. Hratchian, 
 J. V. Ortiz, A. F. Izmaylov, J. L. Sonnenberg, D. Williams-Young, 
 F. Ding, F. Lipparini, F. Egidi, J. Goings, B. Peng, A. Petrone, 
 T. Henderson, D. Ranasinghe, V. G. Zakrzewski, J. Gao, N. Rega, 
 G. Zheng, W. Liang, M. Hada, M. Ehara, K. Toyota, R. Fukuda, 
 J. Hasegawa, M. Ishida, T. Nakajima, Y. Honda, O. Kitao, H. Nakai, 
 T. Vreven, K. Throssell, J. A. Montgomery, Jr., J. E. Peralta, 
 F. Ogliaro, M. J. Bearpark, J. J. Heyd, E. N. Brothers, K. N. Kudin, 
 V. N. Staroverov, T. A. Keith, R. Kobayashi, J. Normand, 
 K. Raghavachari, A. P. Rendell, J. C. Burant, S. S. Iyengar, 
 J. Tomasi, M. Cossi, J. M. Millam, M. Klene, C. Adamo, R. Cammi, 
 J. W. Ochterski, R. L. Martin, K. Morokuma, O. Farkas, 
 J. B. Foresman, and D. J. Fox, Gaussian, Inc., Wallingford CT, 2016.
 
 ******************************************
 Gaussian 16:  EM64L-G16RevB.01 20-Dec-2017
                15-Mar-2022 
 ******************************************
 %mem=10GB
 %nprocshared=4
 Will use up to    4 processors via shared memory.
 --------------------------------
 # opt b3lyp/6-311+g(d,p) scf=xqc
 --------------------------------
 1/18=20,19=15,26=3,38=1/1,3;
 2/9=110,12=2,17=6,18=5,40=1/2;
 3/5=4,6=6,7=111,11=2,25=1,30=1,71=1,74=-5/1,2,3;
 4//1;
 5/5=2,8=3,13=1,38=5/2,8;
 6/7=2,8=2,9=2,10=2,28=1/1;
 7//1,2,3,16;
 1/18=20,19=15,26=3/3(2);
 2/9=110/2;
 99//99;
 2/9=110/2;
 3/5=4,6=6,7=111,11=2,25=1,30=1,71=1,74=-5/1,2,3;
 4/5=5,16=3,69=1/1;
 5/5=2,8=3,13=1,38=5/2,8;
 7//1,2,3,16;
 1/18=20,19=15,26=3/3(-5);
 2/9=110/2;
 6/7=2,8=2,9=2,10=2,19=2,28=1/1;
 99/9=1/99;
 -------------------
 Title Card Required
 -------------------
 Symbolic Z-matrix:
 Charge =  0 Multiplicity = 1
 C                    -0.11316   0.47692  -0.00285 
 C                     1.21922   0.5068   -0.4362 
 C                     1.92712   1.71625  -0.44227 
 C                     1.30263   2.89582  -0.015 
 C                    -0.02975   2.86593   0.41835 
 C                    -0.73765   1.65648   0.42442 
 C                    -0.89106  -0.85215   0.00382 
 C                    -0.26658  -2.03171  -0.42345 
 C                    -0.97447  -3.24117  -0.41738 
 C                    -2.30685  -3.27105   0.01597 
 C                    -2.93134  -2.09149   0.44325 
 C                    -2.22344  -0.88204   0.43717 
 H                     1.69603  -0.39382  -0.76243 
 H                     2.94442   1.73907  -0.77314 
 H                    -0.50656   3.76656   0.74458 
 H                    -1.75495   1.63366   0.75529 
 H                     0.75073  -2.0089   -0.75432 
 H                    -3.94864  -2.11431   0.77412 
 Cl                   -3.00773   0.59936   0.97378 
 Cl                   -3.19588  -4.78999   0.0236 
 Cl                    2.19166   4.41475  -0.02262 
 Cl                   -0.19018  -4.72257  -0.95399 
 

 GradGradGradGradGradGradGradGradGradGradGradGradGradGradGradGradGradGrad
 Berny optimization.
 Initialization pass.
                           ----------------------------
                           !    Initial Parameters    !
                           ! (Angstroms and Degrees)  !
 --------------------------                            --------------------------
 ! Name  Definition              Value          Derivative Info.                !
 --------------------------------------------------------------------------------
 ! R1    R(1,2)                  1.4014         estimate D2E/DX2                !
 ! R2    R(1,6)                  1.4014         estimate D2E/DX2                !
 ! R3    R(1,7)                  1.54           estimate D2E/DX2                !
 ! R4    R(2,3)                  1.4014         estimate D2E/DX2                !
 ! R5    R(2,13)                 1.07           estimate D2E/DX2                !
 ! R6    R(3,4)                  1.4014         estimate D2E/DX2                !
 ! R7    R(3,14)                 1.07           estimate D2E/DX2                !
 ! R8    R(4,5)                  1.4014         estimate D2E/DX2                !
 ! R9    R(4,21)                 1.76           estimate D2E/DX2                !
 ! R10   R(5,6)                  1.4014         estimate D2E/DX2                !
 ! R11   R(5,15)                 1.07           estimate D2E/DX2                !
 ! R12   R(6,16)                 1.07           estimate D2E/DX2                !
 ! R13   R(7,8)                  1.4014         estimate D2E/DX2                !
 ! R14   R(7,12)                 1.4014         estimate D2E/DX2                !
 ! R15   R(8,9)                  1.4014         estimate D2E/DX2                !
 ! R16   R(8,17)                 1.07           estimate D2E/DX2                !
 ! R17   R(9,10)                 1.4014         estimate D2E/DX2                !
 ! R18   R(9,22)                 1.76           estimate D2E/DX2                !
 ! R19   R(10,11)                1.4014         estimate D2E/DX2                !
 ! R20   R(10,20)                1.76           estimate D2E/DX2                !
 ! R21   R(11,12)                1.4014         estimate D2E/DX2                !
 ! R22   R(11,18)                1.07           estimate D2E/DX2                !
 ! R23   R(12,19)                1.76           estimate D2E/DX2                !
 ! A1    A(2,1,6)              120.0            estimate D2E/DX2                !
 ! A2    A(2,1,7)              120.0            estimate D2E/DX2                !
 ! A3    A(6,1,7)              120.0            estimate D2E/DX2                !
 ! A4    A(1,2,3)              120.0            estimate D2E/DX2                !
 ! A5    A(1,2,13)             120.0            estimate D2E/DX2                !
 ! A6    A(3,2,13)             120.0            estimate D2E/DX2                !
 ! A7    A(2,3,4)              120.0            estimate D2E/DX2                !
 ! A8    A(2,3,14)             120.0            estimate D2E/DX2                !
 ! A9    A(4,3,14)             120.0            estimate D2E/DX2                !
 ! A10   A(3,4,5)              120.0            estimate D2E/DX2                !
 ! A11   A(3,4,21)             120.0            estimate D2E/DX2                !
 ! A12   A(5,4,21)             120.0            estimate D2E/DX2                !
 ! A13   A(4,5,6)              120.0            estimate D2E/DX2                !
 ! A14   A(4,5,15)             120.0            estimate D2E/DX2                !
 ! A15   A(6,5,15)             120.0            estimate D2E/DX2                !
 ! A16   A(1,6,5)              120.0            estimate D2E/DX2                !
 ! A17   A(1,6,16)             120.0            estimate D2E/DX2                !
 ! A18   A(5,6,16)             120.0            estimate D2E/DX2                !
 ! A19   A(1,7,8)              120.0            estimate D2E/DX2                !
 ! A20   A(1,7,12)             120.0            estimate D2E/DX2                !
 ! A21   A(8,7,12)             120.0            estimate D2E/DX2                !
 ! A22   A(7,8,9)              120.0            estimate D2E/DX2                !
 ! A23   A(7,8,17)             120.0            estimate D2E/DX2                !
 ! A24   A(9,8,17)             120.0            estimate D2E/DX2                !
 ! A25   A(8,9,10)             120.0            estimate D2E/DX2                !
 ! A26   A(8,9,22)             120.0            estimate D2E/DX2                !
 ! A27   A(10,9,22)            120.0            estimate D2E/DX2                !
 ! A28   A(9,10,11)            120.0            estimate D2E/DX2                !
 ! A29   A(9,10,20)            120.0            estimate D2E/DX2                !
 ! A30   A(11,10,20)           120.0            estimate D2E/DX2                !
 ! A31   A(10,11,12)           120.0            estimate D2E/DX2                !
 ! A32   A(10,11,18)           120.0            estimate D2E/DX2                !
 ! A33   A(12,11,18)           120.0            estimate D2E/DX2                !
 ! A34   A(7,12,11)            120.0            estimate D2E/DX2                !
 ! A35   A(7,12,19)            120.0            estimate D2E/DX2                !
 ! A36   A(11,12,19)           120.0            estimate D2E/DX2                !
 ! D1    D(6,1,2,3)              0.0001         estimate D2E/DX2                !
 ! D2    D(6,1,2,13)           180.0            estimate D2E/DX2                !
 ! D3    D(7,1,2,3)           -180.0            estimate D2E/DX2                !
 ! D4    D(7,1,2,13)            -0.0001         estimate D2E/DX2                !
 ! D5    D(2,1,6,5)             -0.0001         estimate D2E/DX2                !
 ! D6    D(2,1,6,16)           180.0            estimate D2E/DX2                !
 ! D7    D(7,1,6,5)            180.0            estimate D2E/DX2                !
 ! D8    D(7,1,6,16)             0.0            estimate D2E/DX2                !
 ! D9    D(2,1,7,8)             -0.0001         estimate D2E/DX2                !
 ! D10   D(2,1,7,12)           179.9998         estimate D2E/DX2                !
 ! D11   D(6,1,7,8)            179.9999         estimate D2E/DX2                !
 ! D12   D(6,1,7,12)            -0.0002         estimate D2E/DX2                !
 ! D13   D(1,2,3,4)              0.0            estimate D2E/DX2                !
 ! D14   D(1,2,3,14)           180.0            estimate D2E/DX2                !
 ! D15   D(13,2,3,4)          -179.9999         estimate D2E/DX2                !
 ! D16   D(13,2,3,14)            0.0001         estimate D2E/DX2                !
 ! D17   D(2,3,4,5)             -0.0001         estimate D2E/DX2                !
 ! D18   D(2,3,4,21)           180.0            estimate D2E/DX2                !
 ! D19   D(14,3,4,5)           179.9999         estimate D2E/DX2                !
 ! D20   D(14,3,4,21)            0.0            estimate D2E/DX2                !
 ! D21   D(3,4,5,6)              0.0001         estimate D2E/DX2                !
 ! D22   D(3,4,5,15)          -179.9999         estimate D2E/DX2                !
 ! D23   D(21,4,5,6)          -180.0            estimate D2E/DX2                !
 ! D24   D(21,4,5,15)            0.0            estimate D2E/DX2                !
 ! D25   D(4,5,6,1)              0.0            estimate D2E/DX2                !
 ! D26   D(4,5,6,16)           179.9999         estimate D2E/DX2                !
 ! D27   D(15,5,6,1)           180.0            estimate D2E/DX2                !
 ! D28   D(15,5,6,16)           -0.0001         estimate D2E/DX2                !
 ! D29   D(1,7,8,9)            179.9999         estimate D2E/DX2                !
 ! D30   D(1,7,8,17)             0.0001         estimate D2E/DX2                !
 ! D31   D(12,7,8,9)             0.0001         estimate D2E/DX2                !
 ! D32   D(12,7,8,17)         -179.9998         estimate D2E/DX2                !
 ! D33   D(1,7,12,11)         -179.9999         estimate D2E/DX2                !
 ! D34   D(1,7,12,19)            0.0            estimate D2E/DX2                !
 ! D35   D(8,7,12,11)           -0.0001         estimate D2E/DX2                !
 ! D36   D(8,7,12,19)          179.9999         estimate D2E/DX2                !
 ! D37   D(7,8,9,10)             0.0            estimate D2E/DX2                !
 ! D38   D(7,8,9,22)           180.0            estimate D2E/DX2                !
 ! D39   D(17,8,9,10)          179.9998         estimate D2E/DX2                !
 ! D40   D(17,8,9,22)           -0.0002         estimate D2E/DX2                !
 ! D41   D(8,9,10,11)            0.0            estimate D2E/DX2                !
 ! D42   D(8,9,10,20)         -179.9999         estimate D2E/DX2                !
 ! D43   D(22,9,10,11)         180.0            estimate D2E/DX2                !
 ! D44   D(22,9,10,20)           0.0001         estimate D2E/DX2                !
 ! D45   D(9,10,11,12)           0.0            estimate D2E/DX2                !
 ! D46   D(9,10,11,18)        -179.9998         estimate D2E/DX2                !
 ! D47   D(20,10,11,12)        179.9999         estimate D2E/DX2                !
 ! D48   D(20,10,11,18)          0.0001         estimate D2E/DX2                !
 ! D49   D(10,11,12,7)           0.0            estimate D2E/DX2                !
 ! D50   D(10,11,12,19)       -179.9999         estimate D2E/DX2                !
 ! D51   D(18,11,12,7)         179.9999         estimate D2E/DX2                !
 ! D52   D(18,11,12,19)         -0.0001         estimate D2E/DX2                !
 --------------------------------------------------------------------------------
 Trust Radius=3.00D-01 FncErr=1.00D-07 GrdErr=1.00D-06 EigMax=2.50D+02 EigMin=1.00D-04
 Number of steps in this run=    121 maximum allowed number of steps=    132.
 GradGradGradGradGradGradGradGradGradGradGradGradGradGradGradGradGradGrad

                          Input orientation:                          
 ---------------------------------------------------------------------
 Center     Atomic      Atomic             Coordinates (Angstroms)
 Number     Number       Type             X           Y           Z
 ---------------------------------------------------------------------
      1          6           0       -0.113158    0.476918   -0.002851
      2          6           0        1.219223    0.506804   -0.436198
      3          6           0        1.927117    1.716255   -0.442270
      4          6           0        1.302630    2.895820   -0.014995
      5          6           0       -0.029752    2.865934    0.418349
      6          6           0       -0.737646    1.656483    0.424422
      7          6           0       -0.891063   -0.852149    0.003823
      8          6           0       -0.266575   -2.031714   -0.423452
      9          6           0       -0.974468   -3.241166   -0.417378
     10          6           0       -2.306848   -3.271052    0.015972
     11          6           0       -2.931335   -2.091487    0.443247
     12          6           0       -2.223442   -0.882036    0.437173
     13          1           0        1.696034   -0.393821   -0.762430
     14          1           0        2.944420    1.739073   -0.773139
     15          1           0       -0.506563    3.766559    0.744581
     16          1           0       -1.754948    1.633665    0.755291
     17          1           0        0.750727   -2.008896   -0.754322
     18          1           0       -3.948636   -2.114307    0.774122
     19         17           0       -3.007727    0.599364    0.973785
     20         17           0       -3.195881   -4.789987    0.023603
     21         17           0        2.191664    4.414753   -0.022621
     22         17           0       -0.190183   -4.722566   -0.953987
 ---------------------------------------------------------------------
                    Distance matrix (angstroms):
                    1          2          3          4          5
     1  C    0.000000
     2  C    1.401400   0.000000
     3  C    2.427296   1.401400   0.000000
     4  C    2.802800   2.427296   1.401400   0.000000
     5  C    2.427296   2.802800   2.427296   1.401400   0.000000
     6  C    1.401400   2.427296   2.802800   2.427296   1.401400
     7  C    1.540000   2.548270   3.838989   4.342800   3.838989
     8  C    2.548270   2.941400   4.342800   5.187469   4.975106
     9  C    3.838989   4.342800   5.744200   6.558176   6.235992
    10  C    4.342800   5.187469   6.558176   7.145600   6.558176
    11  C    3.838989   4.975106   6.235992   6.558176   5.744200
    12  C    2.548270   3.813607   4.975106   5.187469   4.342800
    13  H    2.146700   1.070000   2.146700   3.396345   3.872800
    14  H    3.396345   2.146700   1.070000   2.146700   3.396345
    15  H    3.396345   3.872800   3.396345   2.146700   1.070000
    16  H    2.146700   3.396345   3.872800   3.396345   2.146700
    17  H    2.736837   2.578650   3.918930   4.990735   5.074276
    18  H    4.693509   5.919617   7.118798   7.300676   6.347206
    19  Cl   3.057342   4.456874   5.254079   4.983028   3.783409
    20  Cl   6.102800   6.910901   8.294174   8.905600   8.294174
    21  Cl   4.562800   4.048303   2.743718   1.760000   2.743718
    22  Cl   5.286324   5.440665   6.797295   7.819846   7.713260
                    6          7          8          9         10
     6  C    0.000000
     7  C    2.548270   0.000000
     8  C    3.813607   1.401400   0.000000
     9  C    4.975106   2.427296   1.401400   0.000000
    10  C    5.187469   2.802800   2.427296   1.401400   0.000000
    11  C    4.342800   2.427296   2.802800   2.427296   1.401400
    12  C    2.941400   1.401400   2.427296   2.802800   2.427296
    13  H    3.396345   2.736837   2.578650   3.918930   4.990735
    14  H    3.872800   4.693509   4.965039   6.347206   7.300676
    15  H    2.146700   4.693509   5.919617   7.118798   7.300676
    16  H    1.070000   2.736837   4.127917   5.074276   4.990735
    17  H    4.127917   2.146700   1.070000   2.146700   3.396345
    18  H    4.965039   3.396345   3.872800   3.396345   2.146700
    19  Cl   2.563702   2.743718   4.048303   4.562800   4.048303
    20  Cl   6.910901   4.562800   4.048303   2.743718   1.760000
    21  Cl   4.048303   6.102800   6.910901   8.294174   8.905600
    22  Cl   6.549198   4.048303   2.743718   1.760000   2.743718
                   11         12         13         14         15
    11  C    0.000000
    12  C    1.401400   0.000000
    13  H    5.074276   4.127917   0.000000
    14  H    7.118798   5.919617   2.471400   0.000000
    15  H    6.347206   4.965039   4.942800   4.280590   0.000000
    16  H    3.918930   2.578650   4.280590   4.942800   2.471400
    17  H    3.872800   3.396345   1.871400   4.342800   6.097816
    18  H    1.070000   2.146700   6.097816   8.047159   6.814200
    19  Cl   2.743718   1.760000   5.111382   6.307038   4.042212
    20  Cl   2.743718   4.048303   6.623817   8.998151   8.998151
    21  Cl   8.294174   6.910901   4.890332   2.879094   2.879094
    22  Cl   4.048303   4.562800   4.725732   7.184095   8.663168
                   16         17         18         19         20
    16  H    0.000000
    17  H    4.671787   0.000000
    18  H    4.342800   4.942800   0.000000
    19  Cl   1.639199   4.890332   2.879094   0.000000
    20  Cl   6.623817   4.890332   2.879094   5.475705   0.000000
    21  Cl   4.890332   6.623817   8.998151   6.525618  10.665600
    22  Cl   6.765486   2.879094   4.890332   6.322800   3.161400
                   21         22
    21  Cl   0.000000
    22  Cl   9.488480   0.000000
 Stoichiometry    C12H6Cl4
 Framework group  C1[X(C12H6Cl4)]
 Deg. of freedom    60
 Full point group                 C1      NOp   1
 Largest Abelian subgroup         C1      NOp   1
 Largest concise Abelian subgroup C1      NOp   1
                         Standard orientation:                         
 ---------------------------------------------------------------------
 Center     Atomic      Atomic             Coordinates (Angstroms)
 Number     Number       Type             X           Y           Z
 ---------------------------------------------------------------------
      1          6           0       -1.238450   -0.136258    0.000002
      2          6           0       -1.802219   -1.419257   -0.000000
      3          6           0       -3.195213   -1.572519   -0.000001
      4          6           0       -4.024439   -0.442781   -0.000001
      5          6           0       -3.460670    0.840218    0.000004
      6          6           0       -2.067675    0.993480    0.000005
      7          6           0        0.292313    0.032161    0.000003
      8          6           0        1.121538   -1.097577    0.000002
      9          6           0        2.514532   -0.944315    0.000001
     10          6           0        3.078301    0.338684    0.000000
     11          6           0        2.249076    1.468422    0.000000
     12          6           0        0.856082    1.315160    0.000001
     13          1           0       -1.169087   -2.281837   -0.000003
     14          1           0       -3.625663   -2.552117   -0.000004
     15          1           0       -4.093802    1.702798    0.000006
     16          1           0       -1.637225    1.973078    0.000007
     17          1           0        0.691088   -2.077175    0.000000
     18          1           0        2.679526    2.448020   -0.000003
     19         17           0       -0.185332    2.733983   -0.000001
     20         17           0        4.827745    0.531163   -0.000003
     21         17           0       -5.773882   -0.635260   -0.000003
     22         17           0        3.555946   -2.363138    0.000001
 ---------------------------------------------------------------------
 Rotational constants (GHZ):           0.7662362           0.1526685           0.1273039
 Standard basis: 6-311+G(d,p) (5D, 7F)
 There are   436 symmetry adapted cartesian basis functions of A   symmetry.
 There are   420 symmetry adapted basis functions of A   symmetry.
   420 basis functions,   692 primitive gaussians,   436 cartesian basis functions
    73 alpha electrons       73 beta electrons
       nuclear repulsion energy      1405.7767529086 Hartrees.
 NAtoms=   22 NActive=   22 NUniq=   22 SFac= 1.00D+00 NAtFMM=   60 NAOKFM=F Big=F
 Integral buffers will be    131072 words long.
 Raffenetti 2 integral format.
 Two-electron integral symmetry is turned on.
 One-electron integrals computed using PRISM.
 NBasis=   420 RedAO= T EigKep=  1.03D-06  NBF=   420
 NBsUse=   415 1.00D-06 EigRej=  6.52D-07 NBFU=   415
 ExpMin= 4.38D-02 ExpMax= 1.06D+05 ExpMxC= 3.62D+03 IAcc=3 IRadAn=         5 AccDes= 0.00D+00
 Harris functional with IExCor=  402 and IRadAn=       5 diagonalized for initial guess.
 HarFok:  IExCor=  402 AccDes= 0.00D+00 IRadAn=         5 IDoV= 1 UseB2=F ITyADJ=14
 ICtDFT=  3500011 ScaDFX=  1.000000  1.000000  1.000000  1.000000
 FoFCou: FMM=F IPFlag=           0 FMFlag=      100000 FMFlg1=           0
         NFxFlg=           0 DoJE=T BraDBF=F KetDBF=T FulRan=T
         wScrn=  0.000000 ICntrl=       500 IOpCl=  0 I1Cent=   200000004 NGrid=           0
         NMat0=    1 NMatS0=      1 NMatT0=    0 NMatD0=    1 NMtDS0=    0 NMtDT0=    0
 Petite list used in FoFCou.
 Requested convergence on RMS density matrix=1.00D-08 within  32 cycles.
 Requested convergence on MAX density matrix=1.00D-06.
 Requested convergence on             energy=1.00D-06.
 No special actions if energy rises.
 EnCoef did     1 forward-backward iterations
 SCF Done:  E(RB3LYP) =  -2301.84002736     A.U. after   16 cycles
            NFock= 16  Conv=0.77D-08     -V/T= 2.0027
 QCSCF skips out because SCF is already converged.

 **********************************************************************

            Population analysis using the SCF Density.

 **********************************************************************

 Orbital symmetries:
       Occupied  (A) (A) (A) (A) (A) (A) (A) (A) (A) (A) (A) (A)
                 (A) (A) (A) (A) (A) (A) (A) (A) (A) (A) (A) (A)
                 (A) (A) (A) (A) (A) (A) (A) (A) (A) (A) (A) (A)
                 (A) (A) (A) (A) (A) (A) (A) (A) (A) (A) (A) (A)
                 (A) (A) (A) (A) (A) (A) (A) (A) (A) (A) (A) (A)
                 (A) (A) (A) (A) (A) (A) (A) (A) (A) (A) (A) (A)
                 (A)
       Virtual   (A) (A) (A) (A) (A) (A) (A) (A) (A) (A) (A) (A)
                 (A) (A) (A) (A) (A) (A) (A) (A) (A) (A) (A) (A)
                 (A) (A) (A) (A) (A) (A) (A) (A) (A) (A) (A) (A)
                 (A) (A) (A) (A) (A) (A) (A) (A) (A) (A) (A) (A)
                 (A) (A) (A) (A) (A) (A) (A) (A) (A) (A) (A) (A)
                 (A) (A) (A) (A) (A) (A) (A) (A) (A) (A) (A) (A)
                 (A) (A) (A) (A) (A) (A) (A) (A) (A) (A) (A) (A)
                 (A) (A) (A) (A) (A) (A) (A) (A) (A) (A) (A) (A)
                 (A) (A) (A) (A) (A) (A) (A) (A) (A) (A) (A) (A)
                 (A) (A) (A) (A) (A) (A) (A) (A) (A) (A) (A) (A)
                 (A) (A) (A) (A) (A) (A) (A) (A) (A) (A) (A) (A)
                 (A) (A) (A) (A) (A) (A) (A) (A) (A) (A) (A) (A)
                 (A) (A) (A) (A) (A) (A) (A) (A) (A) (A) (A) (A)
                 (A) (A) (A) (A) (A) (A) (A) (A) (A) (A) (A) (A)
                 (A) (A) (A) (A) (A) (A) (A) (A) (A) (A) (A) (A)
                 (A) (A) (A) (A) (A) (A) (A) (A) (A) (A) (A) (A)
                 (A) (A) (A) (A) (A) (A) (A) (A) (A) (A) (A) (A)
                 (A) (A) (A) (A) (A) (A) (A) (A) (A) (A) (A) (A)
                 (A) (A) (A) (A) (A) (A) (A) (A) (A) (A) (A) (A)
                 (A) (A) (A) (A) (A) (A) (A) (A) (A) (A) (A) (A)
                 (A) (A) (A) (A) (A) (A) (A) (A) (A) (A) (A) (A)
                 (A) (A) (A) (A) (A) (A) (A) (A) (A) (A) (A) (A)
                 (A) (A) (A) (A) (A) (A) (A) (A) (A) (A) (A) (A)
                 (A) (A) (A) (A) (A) (A) (A) (A) (A) (A) (A) (A)
                 (A) (A) (A) (A) (A) (A) (A) (A) (A) (A) (A) (A)
                 (A) (A) (A) (A) (A) (A) (A) (A) (A) (A) (A) (A)
                 (A) (A) (A) (A) (A) (A) (A) (A) (A) (A) (A) (A)
                 (A) (A) (A) (A) (A) (A) (A) (A) (A) (A) (A) (A)
                 (A) (A) (A) (A) (A) (A)
 The electronic state is 1-A.
 Alpha  occ. eigenvalues -- -101.58178-101.57640-101.57574-101.56185 -10.27521
 Alpha  occ. eigenvalues --  -10.27452 -10.27435 -10.25173 -10.23515 -10.22695
 Alpha  occ. eigenvalues --  -10.22200 -10.21506 -10.20258 -10.20172 -10.19699
 Alpha  occ. eigenvalues --  -10.17818  -9.49962  -9.49062  -9.49003  -9.47628
 Alpha  occ. eigenvalues --   -7.26368  -7.25559  -7.25494  -7.25410  -7.25397
 Alpha  occ. eigenvalues --   -7.24538  -7.24484  -7.24483  -7.24426  -7.24086
 Alpha  occ. eigenvalues --   -7.23116  -7.23077  -0.94697  -0.91928  -0.90072
 Alpha  occ. eigenvalues --   -0.87631  -0.85917  -0.84703  -0.79067  -0.77281
 Alpha  occ. eigenvalues --   -0.76058  -0.73411  -0.66762  -0.63807  -0.63023
 Alpha  occ. eigenvalues --   -0.60827  -0.55090  -0.53321  -0.52544  -0.50564
 Alpha  occ. eigenvalues --   -0.49144  -0.47824  -0.46709  -0.45683  -0.45563
 Alpha  occ. eigenvalues --   -0.45113  -0.42272  -0.41408  -0.41316  -0.39856
 Alpha  occ. eigenvalues --   -0.39674  -0.37989  -0.36782  -0.35512  -0.34999
 Alpha  occ. eigenvalues --   -0.33807  -0.32740  -0.32527  -0.29465  -0.29042
 Alpha  occ. eigenvalues --   -0.27777  -0.27531  -0.24695
 Alpha virt. eigenvalues --   -0.07393  -0.06081  -0.03701  -0.03503  -0.01371
 Alpha virt. eigenvalues --   -0.01210  -0.00585   0.00498   0.00942   0.01639
 Alpha virt. eigenvalues --    0.02006   0.03295   0.03361   0.03997   0.04329
 Alpha virt. eigenvalues --    0.05190   0.05941   0.06004   0.06100   0.06412
 Alpha virt. eigenvalues --    0.07322   0.08062   0.08212   0.08640   0.09025
 Alpha virt. eigenvalues --    0.09552   0.09869   0.10056   0.10406   0.11090
 Alpha virt. eigenvalues --    0.11583   0.12306   0.12800   0.12824   0.13102
 Alpha virt. eigenvalues --    0.13359   0.13520   0.14086   0.14282   0.14655
 Alpha virt. eigenvalues --    0.14738   0.16046   0.16221   0.16393   0.17257
 Alpha virt. eigenvalues --    0.17459   0.18030   0.18273   0.18724   0.19208
 Alpha virt. eigenvalues --    0.19324   0.19712   0.19774   0.20100   0.20158
 Alpha virt. eigenvalues --    0.20955   0.21281   0.21896   0.22214   0.22307
 Alpha virt. eigenvalues --    0.22810   0.23981   0.24033   0.24458   0.24529
 Alpha virt. eigenvalues --    0.25336   0.25909   0.26208   0.26766   0.27737
 Alpha virt. eigenvalues --    0.28314   0.28665   0.29632   0.30408   0.31122
 Alpha virt. eigenvalues --    0.31726   0.31971   0.32548   0.32990   0.34270
 Alpha virt. eigenvalues --    0.35091   0.36185   0.36981   0.38617   0.40023
 Alpha virt. eigenvalues --    0.42306   0.42810   0.43312   0.44049   0.44082
 Alpha virt. eigenvalues --    0.44559   0.45280   0.46050   0.46521   0.47098
 Alpha virt. eigenvalues --    0.47170   0.48156   0.49244   0.50695   0.51007
 Alpha virt. eigenvalues --    0.51171   0.52139   0.53532   0.53685   0.54701
 Alpha virt. eigenvalues --    0.55223   0.56747   0.56918   0.57618   0.58001
 Alpha virt. eigenvalues --    0.58791   0.59485   0.60021   0.61262   0.61304
 Alpha virt. eigenvalues --    0.63084   0.63273   0.64591   0.64613   0.65230
 Alpha virt. eigenvalues --    0.65909   0.66987   0.67249   0.68258   0.68372
 Alpha virt. eigenvalues --    0.69366   0.71167   0.73812   0.75609   0.76785
 Alpha virt. eigenvalues --    0.79082   0.80646   0.81922   0.81965   0.82930
 Alpha virt. eigenvalues --    0.83183   0.83669   0.84346   0.84449   0.84481
 Alpha virt. eigenvalues --    0.84621   0.85130   0.85736   0.86166   0.86825
 Alpha virt. eigenvalues --    0.87985   0.88539   0.88722   0.89028   0.90268
 Alpha virt. eigenvalues --    0.90579   0.91295   0.92100   0.93039   0.93599
 Alpha virt. eigenvalues --    0.93687   0.94087   0.94541   0.95050   0.96327
 Alpha virt. eigenvalues --    0.96507   0.98243   0.98513   0.99552   1.01403
 Alpha virt. eigenvalues --    1.01930   1.04696   1.05177   1.06063   1.06901
 Alpha virt. eigenvalues --    1.08077   1.09675   1.10739   1.12389   1.13315
 Alpha virt. eigenvalues --    1.15282   1.19611   1.20992   1.21412   1.23976
 Alpha virt. eigenvalues --    1.24665   1.26153   1.26735   1.27878   1.28842
 Alpha virt. eigenvalues --    1.29150   1.32119   1.33577   1.35332   1.39100
 Alpha virt. eigenvalues --    1.44003   1.44830   1.48093   1.50453   1.51971
 Alpha virt. eigenvalues --    1.53882   1.54456   1.54693   1.55206   1.57887
 Alpha virt. eigenvalues --    1.58973   1.59390   1.61460   1.65172   1.65914
 Alpha virt. eigenvalues --    1.67871   1.68217   1.71236   1.72160   1.75011
 Alpha virt. eigenvalues --    1.76628   1.78544   1.81025   1.82464   1.84254
 Alpha virt. eigenvalues --    1.86162   1.86535   1.90197   1.90488   1.91841
 Alpha virt. eigenvalues --    1.93123   1.93823   1.94716   1.95911   1.98090
 Alpha virt. eigenvalues --    1.98850   1.99891   2.01311   2.05346   2.06267
 Alpha virt. eigenvalues --    2.06587   2.08608   2.09127   2.12572   2.20678
 Alpha virt. eigenvalues --    2.21204   2.23303   2.23482   2.24990   2.26141
 Alpha virt. eigenvalues --    2.26768   2.27389   2.28514   2.29898   2.33791
 Alpha virt. eigenvalues --    2.35132   2.36768   2.40369   2.41164   2.42199
 Alpha virt. eigenvalues --    2.44215   2.46545   2.49609   2.51310   2.52471
 Alpha virt. eigenvalues --    2.55630   2.57716   2.59094   2.60066   2.61447
 Alpha virt. eigenvalues --    2.63348   2.63649   2.65596   2.68109   2.69542
 Alpha virt. eigenvalues --    2.70854   2.72888   2.73213   2.74224   2.74773
 Alpha virt. eigenvalues --    2.74970   2.78443   2.79134   2.80719   2.81204
 Alpha virt. eigenvalues --    2.83152   2.85477   2.90987   2.92824   2.93115
 Alpha virt. eigenvalues --    2.96602   3.01446   3.04675   3.06613   3.08274
 Alpha virt. eigenvalues --    3.11766   3.13300   3.16466   3.18850   3.21198
 Alpha virt. eigenvalues --    3.25920   3.33060   3.36092   3.40147   3.47558
 Alpha virt. eigenvalues --    3.50047   3.52088   3.60856   3.62259   3.72727
 Alpha virt. eigenvalues --    3.79017   3.83304   3.89765   4.01375   4.12104
 Alpha virt. eigenvalues --    4.16688   4.20486   4.45334   4.79090   4.83207
 Alpha virt. eigenvalues --    9.74200   9.77323   9.79435   9.86068  23.38609
 Alpha virt. eigenvalues --   23.59431  23.79491  23.86045  23.87739  23.94360
 Alpha virt. eigenvalues --   23.96064  24.00991  24.01866  24.07017  24.07641
 Alpha virt. eigenvalues --   24.14582  25.77276  25.82323  25.83093  25.86055
 Alpha virt. eigenvalues --   26.09570  26.12505  26.15916  26.49797  26.59650
 Alpha virt. eigenvalues --   26.65078  26.75241  26.81379 215.73111 215.76373
 Alpha virt. eigenvalues --  215.79010 215.88302
          Condensed to atoms (all electrons):
               1          2          3          4          5          6
     1  C   16.821894  -5.040395   2.781810  -4.004652  -2.999818   1.314406
     2  C   -5.040395  28.667984  -6.185137   2.677301  -3.111777  -5.546506
     3  C    2.781810  -6.185137  20.456205  -3.416023  -4.991647  -1.419611
     4  C   -4.004652   2.677301  -3.416023  14.662692   1.230648  -2.368763
     5  C   -2.999818  -3.111777  -4.991647   1.230648  14.485328   1.433029
     6  C    1.314406  -5.546506  -1.419611  -2.368763   1.433029  14.335482
     7  C    5.130690   1.635477  -0.636365  -0.878117  -1.636503  -1.661128
     8  C   -3.154366   4.869770  -0.992032  -0.005097  -1.258225  -3.129181
     9  C   -1.511868  -2.870655   0.570112  -0.355668  -0.045486   0.346434
    10  C    0.063588   0.326315  -0.212940  -0.014809   0.023035   0.087110
    11  C   -2.971303  -0.674550  -0.399782  -0.184382   1.217133   0.183793
    12  C   -0.787320  -8.535937   0.470129  -0.970837   1.973009   3.654474
    13  H    0.094713   0.259512  -0.103273  -0.052260  -0.012314  -0.011975
    14  H   -0.028329   0.033675   0.167335   0.127620   0.046210   0.002034
    15  H    0.090471  -0.022570   0.068964   0.003451   0.246327  -0.035338
    16  H   -0.285792   0.021558  -0.105310  -0.009838   0.172158   0.458170
    17  H    0.061135   0.093310   0.032808   0.007654  -0.003378   0.021692
    18  H    0.014152  -0.000636   0.000665   0.000014  -0.000078   0.007017
    19  Cl   0.730768   0.295822   0.131700  -0.059421  -0.788053  -0.909903
    20  Cl  -0.034322  -0.015438  -0.004947  -0.001443  -0.001805  -0.035418
    21  Cl  -0.218794  -0.008267   0.340206  -1.204700   0.290313   0.090184
    22  Cl  -0.147779  -0.166022   0.020163  -0.010477   0.001697  -0.018260
               7          8          9         10         11         12
     1  C    5.130690  -3.154366  -1.511868   0.063588  -2.971303  -0.787320
     2  C    1.635477   4.869770  -2.870655   0.326315  -0.674550  -8.535937
     3  C   -0.636365  -0.992032   0.570112  -0.212940  -0.399782   0.470129
     4  C   -0.878117  -0.005097  -0.355668  -0.014809  -0.184382  -0.970837
     5  C   -1.636503  -1.258225  -0.045486   0.023035   1.217133   1.973009
     6  C   -1.661128  -3.129181   0.346434   0.087110   0.183793   3.654474
     7  C   18.402915   1.517580  -4.932723   0.744490  -4.023339  -6.747175
     8  C    1.517580  15.371113   1.647451  -5.303967   0.060649  -3.975834
     9  C   -4.932723   1.647451  23.714755  -6.916448  -2.364085  -1.517555
    10  C    0.744490  -5.303967  -6.916448  24.880845   0.952253  -6.968985
    11  C   -4.023339   0.060649  -2.364085   0.952253  15.447745  -1.005845
    12  C   -6.747175  -3.975834  -1.517555  -6.968985  -1.005845  31.145235
    13  H    0.059397   0.036804   0.006026  -0.006205   0.004014   0.043603
    14  H    0.003863   0.010165  -0.001993   0.000066   0.000327  -0.002298
    15  H    0.011955   0.003954   0.000538  -0.000248  -0.004709  -0.003038
    16  H   -0.091487  -0.023675  -0.013107   0.050237   0.214737   0.073334
    17  H    0.050661   0.241531  -0.125771   0.064412  -0.046880  -0.056137
    18  H    0.087749  -0.033093  -0.012801   0.039998   0.277549  -0.011792
    19  Cl   0.271365   0.437486   0.200048  -0.673513  -0.526043  -0.659456
    20  Cl   0.099183   0.022714   0.446129  -0.724894  -0.021977  -0.500073
    21  Cl  -0.055984  -0.023562   0.000340  -0.001170  -0.003397  -0.035161
    22  Cl  -0.925403   0.403902  -0.577739  -0.366244   0.389193   0.579309
              13         14         15         16         17         18
     1  C    0.094713  -0.028329   0.090471  -0.285792   0.061135   0.014152
     2  C    0.259512   0.033675  -0.022570   0.021558   0.093310  -0.000636
     3  C   -0.103273   0.167335   0.068964  -0.105310   0.032808   0.000665
     4  C   -0.052260   0.127620   0.003451  -0.009838   0.007654   0.000014
     5  C   -0.012314   0.046210   0.246327   0.172158  -0.003378  -0.000078
     6  C   -0.011975   0.002034  -0.035338   0.458170   0.021692   0.007017
     7  C    0.059397   0.003863   0.011955  -0.091487   0.050661   0.087749
     8  C    0.036804   0.010165   0.003954  -0.023675   0.241531  -0.033093
     9  C    0.006026  -0.001993   0.000538  -0.013107  -0.125771  -0.012801
    10  C   -0.006205   0.000066  -0.000248   0.050237   0.064412   0.039998
    11  C    0.004014   0.000327  -0.004709   0.214737  -0.046880   0.277549
    12  C    0.043603  -0.002298  -0.003038   0.073334  -0.056137  -0.011792
    13  H    0.563478  -0.007967   0.000098  -0.000237   0.001931   0.000001
    14  H   -0.007967   0.517573  -0.000376   0.000125   0.000026   0.000000
    15  H    0.000098  -0.000376   0.527137  -0.014931   0.000000   0.000000
    16  H   -0.000237   0.000125  -0.014931   0.709504  -0.000106   0.000008
    17  H    0.001931   0.000026   0.000000  -0.000106   0.529411   0.000076
    18  H    0.000001   0.000000   0.000000   0.000008   0.000076   0.489502
    19  Cl   0.000041  -0.000094   0.002742  -0.286120   0.000269  -0.020911
    20  Cl   0.000097  -0.000000  -0.000001   0.000386  -0.001048  -0.007030
    21  Cl  -0.000552  -0.015110  -0.013474   0.000625   0.000073  -0.000000
    22  Cl   0.000672   0.000000   0.000001  -0.000063  -0.020592  -0.000229
              19         20         21         22
     1  C    0.730768  -0.034322  -0.218794  -0.147779
     2  C    0.295822  -0.015438  -0.008267  -0.166022
     3  C    0.131700  -0.004947   0.340206   0.020163
     4  C   -0.059421  -0.001443  -1.204700  -0.010477
     5  C   -0.788053  -0.001805   0.290313   0.001697
     6  C   -0.909903  -0.035418   0.090184  -0.018260
     7  C    0.271365   0.099183  -0.055984  -0.925403
     8  C    0.437486   0.022714  -0.023562   0.403902
     9  C    0.200048   0.446129   0.000340  -0.577739
    10  C   -0.673513  -0.724894  -0.001170  -0.366244
    11  C   -0.526043  -0.021977  -0.003397   0.389193
    12  C   -0.659456  -0.500073  -0.035161   0.579309
    13  H    0.000041   0.000097  -0.000552   0.000672
    14  H   -0.000094  -0.000000  -0.015110   0.000000
    15  H    0.002742  -0.000001  -0.013474   0.000001
    16  H   -0.286120   0.000386   0.000625  -0.000063
    17  H    0.000269  -0.001048   0.000073  -0.020592
    18  H   -0.020911  -0.007030  -0.000000  -0.000229
    19  Cl  18.220042  -0.026808  -0.000796   0.002791
    20  Cl  -0.026808  17.461872  -0.000003  -0.192107
    21  Cl  -0.000796  -0.000003  17.447009   0.000007
    22  Cl   0.002791  -0.192107   0.000007  17.495568
 Mulliken charges:
               1
     1  C    0.081113
     2  C   -0.702834
     3  C   -0.573027
     4  C    0.827105
     5  C   -0.269802
     6  C   -0.797741
     7  C   -0.427098
     8  C   -0.724085
     9  C    0.314067
    10  C   -0.042927
    11  C   -0.521100
    12  C   -0.161648
    13  H    0.124396
    14  H    0.147148
    15  H    0.139047
    16  H    0.129826
    17  H    0.148922
    18  H    0.169839
    19  Cl   0.658043
    20  Cl   0.536933
    21  Cl   0.412214
    22  Cl   0.531610
 Sum of Mulliken charges =  -0.00000
 Mulliken charges with hydrogens summed into heavy atoms:
               1
     1  C    0.081113
     2  C   -0.578437
     3  C   -0.425879
     4  C    0.827105
     5  C   -0.130755
     6  C   -0.667916
     7  C   -0.427098
     8  C   -0.575163
     9  C    0.314067
    10  C   -0.042927
    11  C   -0.351261
    12  C   -0.161648
    19  Cl   0.658043
    20  Cl   0.536933
    21  Cl   0.412214
    22  Cl   0.531610
 Electronic spatial extent (au):  <R**2>=           7345.7380
 Charge=             -0.0000 electrons
 Dipole moment (field-independent basis, Debye):
    X=              0.2503    Y=              0.3656    Z=             -0.0000  Tot=              0.4431
 Quadrupole moment (field-independent basis, Debye-Ang):
   XX=           -134.3807   YY=           -112.3607   ZZ=           -124.2089
   XY=              0.9660   XZ=             -0.0000   YZ=              0.0000
 Traceless Quadrupole moment (field-independent basis, Debye-Ang):
   XX=            -10.7306   YY=             11.2894   ZZ=             -0.5588
   XY=              0.9660   XZ=             -0.0000   YZ=              0.0000
 Octapole moment (field-independent basis, Debye-Ang**2):
  XXX=             51.1138  YYY=             -1.9850  ZZZ=             -0.0001  XYY=             -8.9300
  XXY=             21.6437  XXZ=             -0.0000  XZZ=              8.7676  YZZ=              1.6136
  YYZ=             -0.0000  XYZ=             -0.0001
 Hexadecapole moment (field-independent basis, Debye-Ang**3):
 XXXX=          -8203.9398 YYYY=          -1625.5408 ZZZZ=           -145.1832 XXXY=            -49.7233
 XXXZ=             -0.0004 YYYX=            -16.9039 YYYZ=              0.0001 ZZZX=              0.0000
 ZZZY=             -0.0000 XXYY=          -1528.3960 XXZZ=          -1382.6195 YYZZ=           -319.4697
 XXYZ=              0.0001 YYXZ=             -0.0001 ZZXY=             -8.6026
 N-N= 1.405776752909D+03 E-N=-8.255572667571D+03  KE= 2.295661485410D+03
 Calling FoFJK, ICntrl=      2127 FMM=F ISym2X=0 I1Cent= 0 IOpClX= 0 NMat=1 NMatS=1 NMatT=0.
 ***** Axes restored to original set *****
 -------------------------------------------------------------------
 Center     Atomic                   Forces (Hartrees/Bohr)
 Number     Number              X              Y              Z
 -------------------------------------------------------------------
      1        6          -0.013422663   -0.027569049   -0.000755651
      2        6          -0.004145511    0.021840857    0.005467803
      3        6          -0.010529420   -0.003073028    0.002891944
      4        6          -0.007986717   -0.008564305    0.001022570
      5        6           0.013095458   -0.011734024   -0.006518056
      6        6           0.047803640    0.029663330   -0.010178290
      7        6           0.019054227    0.036874069    0.000647903
      8        6          -0.022889594   -0.009835974    0.005693921
      9        6           0.005158199    0.002644327   -0.001202836
     10        6          -0.001715527    0.001707816    0.000886012
     11        6           0.009161629    0.003679236   -0.002327221
     12        6           0.005102041   -0.017496624   -0.004967038
     13        1           0.007305085   -0.003291900   -0.003025006
     14        1           0.008650789    0.000643981   -0.002729090
     15        1          -0.003742494    0.008172002    0.002767792
     16        1           0.041584638    0.028392242   -0.008368319
     17        1           0.005040739   -0.003308115   -0.002282117
     18        1          -0.007986196   -0.000954080    0.002451850
     19       17          -0.089146541   -0.061663570    0.017789342
     20       17          -0.000272095    0.008576206    0.001700276
     21       17          -0.000686666   -0.002404925   -0.000225429
     22       17           0.000566980    0.007701526    0.001259641
 -------------------------------------------------------------------
 Cartesian Forces:  Max     0.089146541 RMS     0.018830185

 GradGradGradGradGradGradGradGradGradGradGradGradGradGradGradGradGradGrad
 Berny optimization.
 FormGI is forming the generalized inverse of G from B-inverse, IUseBI=4.
 Internal  Forces:  Max     0.281398969 RMS     0.051253521
 Search for a local minimum.
 Step number   1 out of a maximum of  121
 All quantities printed in internal units (Hartrees-Bohrs-Radians)
 Mixed Optimization -- RFO/linear search
 Second derivative matrix not updated -- first step.
 ITU=  0
     Eigenvalues ---    0.00237   0.01506   0.01506   0.02070   0.02070
     Eigenvalues ---    0.02070   0.02070   0.02070   0.02070   0.02070
     Eigenvalues ---    0.02070   0.02070   0.02070   0.02070   0.02070
     Eigenvalues ---    0.02070   0.02070   0.02070   0.02070   0.16000
     Eigenvalues ---    0.16000   0.16000   0.16000   0.16000   0.16000
     Eigenvalues ---    0.22000   0.22981   0.23000   0.23980   0.24000
     Eigenvalues ---    0.25000   0.25000   0.25000   0.25000   0.25000
     Eigenvalues ---    0.25000   0.25000   0.28519   0.29539   0.29539
     Eigenvalues ---    0.29539   0.29539   0.37230   0.37230   0.37230
     Eigenvalues ---    0.37230   0.37230   0.37230   0.41268   0.41465
     Eigenvalues ---    0.41640   0.41797   0.45389   0.45389   0.45389
     Eigenvalues ---    0.45389   0.45389   0.45389   0.45389   0.45389
 RFO step:  Lambda=-4.25129134D-01 EMin= 2.36824243D-03
 Linear search not attempted -- first point.
 Maximum step size (   0.300) exceeded in Quadratic search.
    -- Step size scaled by   0.380
 Iteration  1 RMS(Cart)=  0.20020586 RMS(Int)=  0.00995572
 Iteration  2 RMS(Cart)=  0.03575641 RMS(Int)=  0.00029033
 Iteration  3 RMS(Cart)=  0.00054446 RMS(Int)=  0.00004594
 Iteration  4 RMS(Cart)=  0.00000017 RMS(Int)=  0.00004594
 Variable       Old X    -DE/DX   Delta X   Delta X   Delta X     New X
                                 (Linear)    (Quad)   (Total)
    R1        2.64826   0.01750   0.00000   0.00785   0.00790   2.65616
    R2        2.64826   0.01743   0.00000   0.00792   0.00796   2.65622
    R3        2.91018   0.06713   0.00000   0.03595   0.03595   2.94612
    R4        2.64826  -0.01378   0.00000  -0.00606  -0.00605   2.64221
    R5        2.02201   0.00695   0.00000   0.00331   0.00331   2.02532
    R6        2.64826  -0.02748   0.00000  -0.01227  -0.01231   2.63595
    R7        2.02201   0.00908   0.00000   0.00433   0.00433   2.02634
    R8        2.64826  -0.02547   0.00000  -0.01130  -0.01135   2.63691
    R9        3.32592  -0.00242   0.00000  -0.00128  -0.00128   3.32464
   R10        2.64826  -0.00145   0.00000  -0.00053  -0.00054   2.64773
   R11        2.02201   0.00939   0.00000   0.00448   0.00448   2.02649
   R12        2.02201  -0.04273   0.00000  -0.02038  -0.02038   2.00163
   R13        2.64826   0.01764   0.00000   0.00827   0.00837   2.65664
   R14        2.64826   0.12099   0.00000   0.05354   0.05361   2.70187
   R15        2.64826  -0.02418   0.00000  -0.01100  -0.01098   2.63729
   R16        2.02201   0.00543   0.00000   0.00259   0.00259   2.02460
   R17        2.64826  -0.03410   0.00000  -0.01594  -0.01601   2.63225
   R18        3.32592  -0.00661   0.00000  -0.00349  -0.00349   3.32243
   R19        2.64826  -0.03207   0.00000  -0.01452  -0.01462   2.63364
   R20        3.32592  -0.00726   0.00000  -0.00383  -0.00383   3.32209
   R21        2.64826   0.00155   0.00000   0.00121   0.00118   2.64945
   R22        2.02201   0.00837   0.00000   0.00399   0.00399   2.02600
   R23        3.32592  -0.00675   0.00000  -0.00357  -0.00357   3.32235
    A1        2.09440  -0.06241   0.00000  -0.03459  -0.03450   2.05990
    A2        2.09440  -0.13148   0.00000  -0.07436  -0.07440   2.01999
    A3        2.09440   0.19389   0.00000   0.10895   0.10890   2.20330
    A4        2.09440   0.03935   0.00000   0.02315   0.02320   2.11759
    A5        2.09440  -0.01461   0.00000  -0.00828  -0.00831   2.08609
    A6        2.09440  -0.02474   0.00000  -0.01486  -0.01489   2.07951
    A7        2.09440  -0.00131   0.00000  -0.00174  -0.00177   2.09262
    A8        2.09440   0.00112   0.00000   0.00117   0.00119   2.09558
    A9        2.09440   0.00019   0.00000   0.00057   0.00059   2.09498
   A10        2.09440  -0.00787   0.00000  -0.00560  -0.00569   2.08870
   A11        2.09440   0.00283   0.00000   0.00218   0.00222   2.09662
   A12        2.09440   0.00504   0.00000   0.00342   0.00347   2.09786
   A13        2.09440   0.01065   0.00000   0.00571   0.00566   2.10005
   A14        2.09440  -0.00586   0.00000  -0.00320  -0.00317   2.09122
   A15        2.09440  -0.00479   0.00000  -0.00251  -0.00248   2.09191
   A16        2.09440   0.02159   0.00000   0.01307   0.01311   2.10750
   A17        2.09440   0.01743   0.00000   0.01181   0.01179   2.10619
   A18        2.09440  -0.03902   0.00000  -0.02488  -0.02490   2.06949
   A19        2.09440  -0.20286   0.00000  -0.11529  -0.11538   1.97901
   A20        2.09440   0.28140   0.00000   0.15753   0.15744   2.25184
   A21        2.09440  -0.07854   0.00000  -0.04224  -0.04206   2.05234
   A22        2.09440   0.05950   0.00000   0.03478   0.03491   2.12930
   A23        2.09440  -0.02623   0.00000  -0.01510  -0.01517   2.07923
   A24        2.09440  -0.03327   0.00000  -0.01968  -0.01974   2.07465
   A25        2.09440   0.00084   0.00000  -0.00224  -0.00229   2.09210
   A26        2.09440  -0.00737   0.00000  -0.00280  -0.00277   2.09163
   A27        2.09440   0.00653   0.00000   0.00504   0.00506   2.09946
   A28        2.09440  -0.00795   0.00000  -0.00733  -0.00751   2.08689
   A29        2.09440   0.01210   0.00000   0.00824   0.00833   2.10273
   A30        2.09440  -0.00415   0.00000  -0.00091  -0.00082   2.09357
   A31        2.09440   0.03879   0.00000   0.02229   0.02216   2.11655
   A32        2.09440  -0.02019   0.00000  -0.01166  -0.01160   2.08280
   A33        2.09440  -0.01860   0.00000  -0.01063  -0.01056   2.08383
   A34        2.09440  -0.01264   0.00000  -0.00525  -0.00520   2.08919
   A35        2.09440   0.18864   0.00000   0.10534   0.10532   2.19971
   A36        2.09440  -0.17600   0.00000  -0.10009  -0.10011   1.99428
    D1        0.00000   0.00000   0.00000   0.00000   0.00000   0.00000
    D2        3.14159   0.00000   0.00000   0.00000   0.00000   3.14159
    D3       -3.14159   0.00000   0.00000  -0.00000  -0.00000  -3.14159
    D4       -0.00000  -0.00000   0.00000  -0.00000  -0.00000  -0.00000
    D5       -0.00000  -0.00000   0.00000  -0.00000  -0.00000  -0.00000
    D6        3.14159  -0.00000   0.00000  -0.00000  -0.00000   3.14159
    D7        3.14159   0.00000   0.00000   0.00000   0.00000   3.14159
    D8        0.00000  -0.00000   0.00000  -0.00000  -0.00000   0.00000
    D9       -0.00000  -0.00000   0.00000  -0.00000  -0.00000  -0.00000
   D10        3.14159  -0.00000   0.00000  -0.00000  -0.00000   3.14159
   D11        3.14159  -0.00000   0.00000  -0.00000  -0.00000   3.14159
   D12       -0.00000  -0.00000   0.00000  -0.00000  -0.00000  -0.00000
   D13        0.00000  -0.00000   0.00000  -0.00000  -0.00000   0.00000
   D14        3.14159  -0.00000   0.00000  -0.00000  -0.00000   3.14159
   D15       -3.14159  -0.00000   0.00000  -0.00000  -0.00000  -3.14159
   D16        0.00000  -0.00000   0.00000  -0.00000  -0.00000   0.00000
   D17       -0.00000   0.00000   0.00000   0.00000   0.00000  -0.00000
   D18        3.14159   0.00000   0.00000   0.00000   0.00000   3.14159
   D19        3.14159  -0.00000   0.00000  -0.00000  -0.00000   3.14159
   D20        0.00000  -0.00000   0.00000  -0.00000  -0.00000   0.00000
   D21        0.00000   0.00000   0.00000   0.00000   0.00000   0.00000
   D22       -3.14159   0.00000   0.00000   0.00000   0.00000  -3.14159
   D23       -3.14159  -0.00000   0.00000  -0.00000  -0.00000  -3.14159
   D24        0.00000   0.00000   0.00000   0.00000   0.00000   0.00000
   D25       -0.00000   0.00000   0.00000   0.00000   0.00000  -0.00000
   D26        3.14159   0.00000   0.00000   0.00000   0.00000   3.14159
   D27        3.14159   0.00000   0.00000   0.00000   0.00000   3.14159
   D28       -0.00000   0.00000   0.00000   0.00000   0.00000  -0.00000
   D29        3.14159   0.00000   0.00000   0.00000   0.00000   3.14159
   D30        0.00000   0.00000   0.00000   0.00000   0.00000   0.00000
   D31        0.00000   0.00000   0.00000   0.00000   0.00000   0.00000
   D32       -3.14159  -0.00000   0.00000  -0.00000  -0.00000  -3.14159
   D33       -3.14159   0.00000   0.00000   0.00000   0.00000  -3.14159
   D34        0.00000  -0.00000   0.00000  -0.00000  -0.00000   0.00000
   D35       -0.00000  -0.00000   0.00000  -0.00000  -0.00000  -0.00000
   D36        3.14159  -0.00000   0.00000  -0.00000  -0.00000   3.14159
   D37       -0.00000   0.00000   0.00000  -0.00000  -0.00000  -0.00000
   D38        3.14159  -0.00000   0.00000  -0.00000  -0.00000   3.14159
   D39        3.14159   0.00000   0.00000   0.00000   0.00000   3.14159
   D40       -0.00000   0.00000   0.00000   0.00000   0.00000  -0.00000
   D41       -0.00000  -0.00000   0.00000  -0.00000  -0.00000  -0.00000
   D42       -3.14159  -0.00000   0.00000  -0.00000  -0.00000  -3.14159
   D43        3.14159   0.00000   0.00000   0.00000   0.00000   3.14159
   D44        0.00000   0.00000   0.00000  -0.00000  -0.00000   0.00000
   D45        0.00000   0.00000   0.00000   0.00000   0.00000   0.00000
   D46       -3.14159   0.00000   0.00000   0.00000   0.00000  -3.14159
   D47        3.14159   0.00000   0.00000   0.00000   0.00000   3.14159
   D48        0.00000   0.00000   0.00000   0.00000   0.00000   0.00000
   D49        0.00000   0.00000   0.00000   0.00000   0.00000   0.00000
   D50       -3.14159   0.00000   0.00000   0.00000   0.00000  -3.14159
   D51        3.14159   0.00000   0.00000   0.00000   0.00000   3.14159
   D52       -0.00000   0.00000   0.00000   0.00000   0.00000  -0.00000
         Item               Value     Threshold  Converged?
 Maximum Force            0.281399     0.000450     NO 
 RMS     Force            0.051254     0.000300     NO 
 Maximum Displacement     0.983384     0.001800     NO 
 RMS     Displacement     0.231225     0.001200     NO 
 Predicted change in Energy=-1.500760D-01
 GradGradGradGradGradGradGradGradGradGradGradGradGradGradGradGradGradGrad

                          Input orientation:                          
 ---------------------------------------------------------------------
 Center     Atomic      Atomic             Coordinates (Angstroms)
 Number     Number       Type             X           Y           Z
 ---------------------------------------------------------------------
      1          6           0       -0.245862    0.580172    0.060261
      2          6           0        1.078835    0.470664   -0.396733
      3          6           0        1.919190    1.586110   -0.464100
      4          6           0        1.445294    2.838314   -0.072797
      5          6           0        0.133212    2.968556    0.383933
      6          6           0       -0.707028    1.849321    0.450551
      7          6           0       -1.066381   -0.745286    0.081653
      8          6           0       -0.337483   -1.860183   -0.367876
      9          6           0       -0.898106   -3.137032   -0.422978
     10          6           0       -2.218466   -3.332698   -0.024724
     11          6           0       -2.968736   -2.248209    0.426136
     12          6           0       -2.420509   -0.959276    0.487592
     13          1           0        1.455409   -0.485698   -0.700409
     14          1           0        2.926466    1.479431   -0.815987
     15          1           0       -0.233511    3.930140    0.685344
     16          1           0       -1.697852    1.979859    0.801498
     17          1           0        0.679436   -1.727922   -0.678065
     18          1           0       -3.984631   -2.403080    0.731747
     19         17           0       -3.528111    0.269295    1.083239
     20         17           0       -2.940726   -4.934217   -0.087547
     21         17           0        2.497502    4.245902   -0.155093
     22         17           0        0.065646   -4.491716   -0.994916
 ---------------------------------------------------------------------
                    Distance matrix (angstroms):
                    1          2          3          4          5
     1  C    0.000000
     2  C    1.405581   0.000000
     3  C    2.444241   1.398197   0.000000
     4  C    2.824343   2.417642   1.394887   0.000000
     5  C    2.439844   2.782644   2.412474   1.395394   0.000000
     6  C    1.405610   2.409957   2.793364   2.425796   1.401116
     7  C    1.559022   2.511840   3.827125   4.378876   3.914462
     8  C    2.479320   2.727570   4.120530   5.034008   4.909530
     9  C    3.804806   4.113934   5.499719   6.427978   6.244431
    10  C    4.382801   5.047390   6.442664   7.176826   6.738188
    11  C    3.943050   4.944918   6.275853   6.753170   6.069472
    12  C    2.698444   3.882289   5.120321   5.447949   4.686160
    13  H    2.146863   1.071754   2.136194   3.382758   3.854332
    14  H    3.411765   2.146421   1.072292   2.143074   3.385199
    15  H    3.407809   3.855011   3.383757   2.141319   1.072370
    16  H    2.148681   3.379855   3.852242   3.373529   2.122422
    17  H    2.593954   2.252210   3.544796   4.669411   4.845937
    18  H    4.830018   5.930477   7.224872   7.589702   6.777320
    19  Cl   3.451998   4.843018   5.813893   5.715859   4.602209
    20  Cl   6.139432   6.742789   8.140960   8.924663   8.492655
    21  Cl   4.583666   4.040226   2.739420   1.759324   2.740809
    22  Cl   5.189844   5.099960   6.376312   7.515521   7.586926
                    6          7          8          9         10
     6  C    0.000000
     7  C    2.645224   0.000000
     8  C    3.816649   1.405832   0.000000
     9  C    5.065894   2.450187   1.395592   0.000000
    10  C    5.418824   2.834310   2.413328   1.392926   0.000000
    11  C    4.680350   2.448754   2.775700   2.408009   1.393662
    12  C    3.290229   1.429769   2.425378   2.808820   2.436477
    13  H    3.384252   2.653005   2.283473   3.556061   4.696735
    14  H    3.865646   4.658106   4.691182   6.007789   7.088935
    15  H    2.146893   4.787246   5.886248   7.184356   7.562609
    16  H    1.059215   2.888486   4.238391   5.321796   5.401569
    17  H    3.999091   2.142573   1.071370   2.130562   3.376388
    18  H    5.376306   3.418638   3.847804   3.376198   2.134426
    19  Cl   3.294737   2.844761   4.101282   4.559460   3.989624
    20  Cl   7.162077   4.592269   4.037963   2.741293   1.757973
    21  Cl   4.047149   6.137530   6.735480   8.130782   8.927067
    22  Cl   6.549439   4.059091   2.735079   1.758152   2.738935
                   11         12         13         14         15
    11  C    0.000000
    12  C    1.402027   0.000000
    13  H    4.893731   4.081466   0.000000
    14  H    7.084601   6.019697   2.457458   0.000000
    15  H    6.761703   5.359892   4.926701   4.271466   0.000000
    16  H    4.430869   3.042907   4.275249   4.924531   2.441594
    17  H    3.846961   3.399887   1.464840   3.918581   5.891181
    18  H    1.072113   2.142582   5.943186   8.076672   7.360891
    19  Cl   2.661298   1.758113   5.346671   6.836158   4.941103
    20  Cl   2.734830   4.049885   6.284180   8.722926   9.300709
    21  Cl   8.508293   7.189837   4.875589   2.876483   2.874799
    22  Cl   4.032392   4.566939   4.250453   6.623511   8.593045
                   16         17         18         19         20
    16  H    0.000000
    17  H    4.646315   0.000000
    18  H    4.944125   4.919037   0.000000
    19  Cl   2.520964   4.979409   2.733778   0.000000
    20  Cl   7.080931   4.871817   2.857908   5.365845   0.000000
    21  Cl   4.863230   6.266214   9.328102   7.324950  10.670214
    22  Cl   6.943941   2.848804   4.873245   6.316727   3.171340
                   21         22
    21  Cl   0.000000
    22  Cl   9.108523   0.000000
 Stoichiometry    C12H6Cl4
 Framework group  C1[X(C12H6Cl4)]
 Deg. of freedom    60
 Full point group                 C1      NOp   1
 Largest Abelian subgroup         C1      NOp   1
 Largest concise Abelian subgroup C1      NOp   1
                         Standard orientation:                         
 ---------------------------------------------------------------------
 Center     Atomic      Atomic             Coordinates (Angstroms)
 Number     Number       Type             X           Y           Z
 ---------------------------------------------------------------------
      1          6           0       -1.299688    0.124292    0.000002
      2          6           0       -1.780435   -1.196518   -0.000000
      3          6           0       -3.151390   -1.471174   -0.000002
      4          6           0       -4.070681   -0.422072   -0.000001
      5          6           0       -3.614103    0.896511    0.000004
      6          6           0       -2.239790    1.169256    0.000005
      7          6           0        0.251526    0.280125    0.000003
      8          6           0        0.935784   -0.947944    0.000002
      9          6           0        2.329620   -1.017927    0.000001
     10          6           0        3.083014    0.153671    0.000001
     11          6           0        2.435457    1.387755    0.000000
     12          6           0        1.036170    1.475355    0.000001
     13          1           0       -1.084735   -2.011783   -0.000003
     14          1           0       -3.495880   -2.486623   -0.000004
     15          1           0       -4.318809    1.704822    0.000007
     16          1           0       -1.923958    2.180288    0.000008
     17          1           0        0.372121   -1.859052    0.000000
     18          1           0        3.019013    2.287137   -0.000003
     19         17           0        0.415247    3.120171   -0.000002
     20         17           0        4.839613    0.084172   -0.000003
     21         17           0       -5.797094   -0.760770   -0.000003
     22         17           0        3.126901   -2.584913    0.000001
 ---------------------------------------------------------------------
 Rotational constants (GHZ):           0.6592980           0.1552636           0.1256688
 Standard basis: 6-311+G(d,p) (5D, 7F)
 There are   436 symmetry adapted cartesian basis functions of A   symmetry.
 There are   420 symmetry adapted basis functions of A   symmetry.
   420 basis functions,   692 primitive gaussians,   436 cartesian basis functions
    73 alpha electrons       73 beta electrons
       nuclear repulsion energy      1390.2036768170 Hartrees.
 NAtoms=   22 NActive=   22 NUniq=   22 SFac= 1.00D+00 NAtFMM=   60 NAOKFM=F Big=F
 Integral buffers will be    131072 words long.
 Raffenetti 2 integral format.
 Two-electron integral symmetry is turned on.
 One-electron integrals computed using PRISM.
 NBasis=   420 RedAO= T EigKep=  1.11D-06  NBF=   420
 NBsUse=   415 1.00D-06 EigRej=  7.33D-07 NBFU=   415
 Initial guess from the checkpoint file:  "/scratch/gour/Gau-24247.chk"
 B after Tr=     0.000000    0.000000    0.000000
         Rot=    0.999668    0.000000    0.000000    0.025771 Ang=   2.95 deg.
 ExpMin= 4.38D-02 ExpMax= 1.06D+05 ExpMxC= 3.62D+03 IAcc=3 IRadAn=         5 AccDes= 0.00D+00
 Harris functional with IExCor=  402 and IRadAn=       5 diagonalized for initial guess.
 HarFok:  IExCor=  402 AccDes= 0.00D+00 IRadAn=         5 IDoV= 1 UseB2=F ITyADJ=14
 ICtDFT=  3500011 ScaDFX=  1.000000  1.000000  1.000000  1.000000
 FoFCou: FMM=F IPFlag=           0 FMFlag=      100000 FMFlg1=           0
         NFxFlg=           0 DoJE=T BraDBF=F KetDBF=T FulRan=T
         wScrn=  0.000000 ICntrl=       500 IOpCl=  0 I1Cent=   200000004 NGrid=           0
         NMat0=    1 NMatS0=      1 NMatT0=    0 NMatD0=    1 NMtDS0=    0 NMtDT0=    0
 Petite list used in FoFCou.
 Requested convergence on RMS density matrix=1.00D-08 within  32 cycles.
 Requested convergence on MAX density matrix=1.00D-06.
 Requested convergence on             energy=1.00D-06.
 No special actions if energy rises.
 EnCoef did     4 forward-backward iterations
 SCF Done:  E(RB3LYP) =  -2301.88084515     A.U. after   18 cycles
            NFock= 18  Conv=0.26D-08     -V/T= 2.0028
 QCSCF skips out because SCF is already converged.
 Calling FoFJK, ICntrl=      2127 FMM=F ISym2X=0 I1Cent= 0 IOpClX= 0 NMat=1 NMatS=1 NMatT=0.
 ***** Axes restored to original set *****
 -------------------------------------------------------------------
 Center     Atomic                   Forces (Hartrees/Bohr)
 Number     Number              X              Y              Z
 -------------------------------------------------------------------
      1        6          -0.013637526   -0.023277660    0.000121134
      2        6           0.001732523    0.024542752    0.004038701
      3        6          -0.008171362   -0.003042755    0.002120752
      4        6          -0.006237350   -0.004981945    0.001119027
      5        6           0.002900798   -0.008669836   -0.002583902
      6        6           0.018282207   -0.002773960   -0.006544085
      7        6           0.007886143    0.026832362    0.002441377
      8        6          -0.023451376   -0.015453428    0.004823973
      9        6           0.006302748    0.001609982   -0.001774178
     10        6          -0.003678521   -0.002513365    0.000739953
     11        6           0.009444460    0.003248800   -0.002501251
     12        6           0.014437404   -0.011817466   -0.006976010
     13        1           0.010560804    0.008092735   -0.001959459
     14        1           0.006988489   -0.000712402   -0.002436178
     15        1          -0.002791332    0.006390188    0.002119795
     16        1          -0.012989061    0.002151604    0.004683356
     17        1          -0.003608382   -0.011269210   -0.000927809
     18        1          -0.006194664   -0.000994363    0.001854046
     19       17           0.004930009    0.001898944   -0.001267614
     20       17          -0.001030414    0.007120329    0.001676684
     21       17          -0.001889782   -0.002571268    0.000139702
     22       17           0.000214186    0.006189964    0.001091987
 -------------------------------------------------------------------
 Cartesian Forces:  Max     0.026832362 RMS     0.008652280

 GradGradGradGradGradGradGradGradGradGradGradGradGradGradGradGradGradGrad
 Berny optimization.
 Using GEDIIS/GDIIS optimizer.
 FormGI is forming the generalized inverse of G from B-inverse, IUseBI=4.
 Internal  Forces:  Max     0.060802614 RMS     0.011273716
 Search for a local minimum.
 Step number   2 out of a maximum of  121
 All quantities printed in internal units (Hartrees-Bohrs-Radians)
 Mixed Optimization -- RFO/linear search
 Update second derivatives using D2CorX and points    1    2
 DE= -4.08D-02 DEPred=-1.50D-01 R= 2.72D-01
 Trust test= 2.72D-01 RLast= 3.00D-01 DXMaxT set to 3.00D-01
 ITU=  0  0
 Use linear search instead of GDIIS.
     Eigenvalues ---    0.00237   0.01478   0.01484   0.02070   0.02070
     Eigenvalues ---    0.02070   0.02070   0.02070   0.02070   0.02070
     Eigenvalues ---    0.02070   0.02070   0.02070   0.02070   0.02070
     Eigenvalues ---    0.02070   0.02070   0.02070   0.02070   0.15966
     Eigenvalues ---    0.16000   0.16000   0.16000   0.16000   0.16036
     Eigenvalues ---    0.22003   0.22937   0.23024   0.23884   0.23986
     Eigenvalues ---    0.24786   0.25000   0.25000   0.25000   0.25000
     Eigenvalues ---    0.25000   0.28454   0.29529   0.29539   0.29539
     Eigenvalues ---    0.29539   0.37075   0.37202   0.37230   0.37230
     Eigenvalues ---    0.37230   0.37230   0.40656   0.41181   0.41367
     Eigenvalues ---    0.41705   0.45042   0.45324   0.45389   0.45389
     Eigenvalues ---    0.45389   0.45389   0.45389   0.45389   2.10914
 RFO step:  Lambda=-1.46516862D-02 EMin= 2.36824243D-03
 Quartic linear search produced a step of -0.31041.
 Iteration  1 RMS(Cart)=  0.15195464 RMS(Int)=  0.00482527
 Iteration  2 RMS(Cart)=  0.00844932 RMS(Int)=  0.00006526
 Iteration  3 RMS(Cart)=  0.00002586 RMS(Int)=  0.00006482
 Iteration  4 RMS(Cart)=  0.00000000 RMS(Int)=  0.00006482
 Variable       Old X    -DE/DX   Delta X   Delta X   Delta X     New X
                                 (Linear)    (Quad)   (Total)
    R1        2.65616   0.01034  -0.00245   0.02254   0.02015   2.67631
    R2        2.65622  -0.00181  -0.00247   0.00430   0.00192   2.65814
    R3        2.94612  -0.00690  -0.01116   0.01230   0.00114   2.94727
    R4        2.64221  -0.00787   0.00188  -0.01622  -0.01438   2.62783
    R5        2.02532  -0.00296  -0.00103  -0.00255  -0.00358   2.02174
    R6        2.63595  -0.00702   0.00382  -0.02095  -0.01722   2.61874
    R7        2.02634   0.00743  -0.00134   0.01678   0.01543   2.04177
    R8        2.63691  -0.01014   0.00352  -0.02516  -0.02169   2.61522
    R9        3.32464  -0.00319   0.00040  -0.00810  -0.00771   3.31693
   R10        2.64773  -0.00851   0.00017  -0.01339  -0.01319   2.63454
   R11        2.02649   0.00728  -0.00139   0.01662   0.01523   2.04172
   R12        2.00163   0.01397   0.00633   0.00819   0.01451   2.01614
   R13        2.65664   0.00687  -0.00260   0.01717   0.01465   2.67129
   R14        2.70187  -0.01769  -0.01664   0.01837   0.00186   2.70373
   R15        2.63729  -0.00691   0.00341  -0.01868  -0.01532   2.62197
   R16        2.02460  -0.00455  -0.00080  -0.00598  -0.00678   2.01782
   R17        2.63225  -0.00069   0.00497  -0.01384  -0.00900   2.62325
   R18        3.32243  -0.00501   0.00108  -0.01388  -0.01279   3.30963
   R19        2.63364  -0.01042   0.00454  -0.02764  -0.02319   2.61045
   R20        3.32209  -0.00612   0.00119  -0.01662  -0.01543   3.30665
   R21        2.64945  -0.00867  -0.00037  -0.01244  -0.01277   2.63668
   R22        2.02600   0.00654  -0.00124   0.01491   0.01367   2.03967
   R23        3.32235  -0.00221   0.00111  -0.00772  -0.00661   3.31574
    A1        2.05990  -0.01376   0.01071  -0.06065  -0.04978   2.01012
    A2        2.01999   0.05610   0.02310   0.08853   0.11154   2.13153
    A3        2.20330  -0.04234  -0.03380  -0.02788  -0.06176   2.14153
    A4        2.11759   0.00391  -0.00720   0.03046   0.02328   2.14087
    A5        2.08609   0.01133   0.00258   0.03938   0.04195   2.12803
    A6        2.07951  -0.01524   0.00462  -0.06984  -0.06523   2.01428
    A7        2.09262   0.00028   0.00055  -0.00080  -0.00038   2.09224
    A8        2.09558  -0.00011  -0.00037   0.00072   0.00041   2.09599
    A9        2.09498  -0.00017  -0.00018   0.00009  -0.00003   2.09495
   A10        2.08870   0.00166   0.00177  -0.00241  -0.00080   2.08790
   A11        2.09662  -0.00087  -0.00069   0.00061   0.00000   2.09662
   A12        2.09786  -0.00078  -0.00108   0.00180   0.00080   2.09866
   A13        2.10005  -0.00151  -0.00176  -0.00318  -0.00496   2.09509
   A14        2.09122   0.00110   0.00099   0.00272   0.00372   2.09494
   A15        2.09191   0.00041   0.00077   0.00046   0.00125   2.09316
   A16        2.10750   0.00942  -0.00407   0.03658   0.03264   2.14014
   A17        2.10619  -0.00427  -0.00366  -0.00422  -0.00795   2.09824
   A18        2.06949  -0.00515   0.00773  -0.03236  -0.02469   2.04480
   A19        1.97901   0.06080   0.03582   0.07072   0.10642   2.08543
   A20        2.25184  -0.04366  -0.04887   0.00689  -0.04210   2.20974
   A21        2.05234  -0.01714   0.01306  -0.07761  -0.06432   1.98801
   A22        2.12930   0.00685  -0.01084   0.04737   0.03658   2.16589
   A23        2.07923   0.00767   0.00471   0.02162   0.02630   2.10553
   A24        2.07465  -0.01452   0.00613  -0.06899  -0.06289   2.01177
   A25        2.09210   0.00046   0.00071   0.00163   0.00216   2.09426
   A26        2.09163  -0.00655   0.00086  -0.02025  -0.01931   2.07232
   A27        2.09946   0.00609  -0.00157   0.01863   0.01715   2.11660
   A28        2.08689  -0.00558   0.00233  -0.01948  -0.01738   2.06951
   A29        2.10273   0.00965  -0.00259   0.03109   0.02862   2.13135
   A30        2.09357  -0.00407   0.00026  -0.01161  -0.01124   2.08233
   A31        2.11655  -0.00093  -0.00688   0.01195   0.00502   2.12157
   A32        2.08280   0.00041   0.00360  -0.00652  -0.00290   2.07990
   A33        2.08383   0.00052   0.00328  -0.00542  -0.00212   2.08172
   A34        2.08919   0.01634   0.00162   0.03615   0.03794   2.12713
   A35        2.19971  -0.01642  -0.03269   0.03879   0.00601   2.20573
   A36        1.99428   0.00008   0.03108  -0.07495  -0.04396   1.95032
    D1        0.00000  -0.00000  -0.00000  -0.00000  -0.00000   0.00000
    D2        3.14159  -0.00000  -0.00000  -0.00000  -0.00000   3.14159
    D3       -3.14159  -0.00000   0.00000  -0.00000  -0.00000  -3.14159
    D4       -0.00000  -0.00000   0.00000   0.00000   0.00000  -0.00000
    D5       -0.00000   0.00000   0.00000   0.00000   0.00000  -0.00000
    D6        3.14159   0.00000   0.00000   0.00000   0.00000   3.14159
    D7        3.14159  -0.00000  -0.00000   0.00000   0.00000   3.14159
    D8       -0.00000  -0.00000   0.00000  -0.00000  -0.00000  -0.00000
    D9       -0.00000  -0.00000   0.00000  -0.00000  -0.00000  -0.00000
   D10        3.14159  -0.00000   0.00000  -0.00000  -0.00000   3.14159
   D11        3.14159  -0.00000   0.00000  -0.00000  -0.00000   3.14159
   D12       -0.00000  -0.00000   0.00000   0.00000   0.00000  -0.00000
   D13        0.00000  -0.00000   0.00000  -0.00000  -0.00000   0.00000
   D14        3.14159   0.00000   0.00000   0.00000   0.00000   3.14159
   D15       -3.14159  -0.00000   0.00000  -0.00000  -0.00000  -3.14159
   D16        0.00000  -0.00000   0.00000  -0.00000  -0.00000   0.00000
   D17       -0.00000   0.00000  -0.00000   0.00000   0.00000  -0.00000
   D18        3.14159  -0.00000  -0.00000  -0.00000  -0.00000   3.14159
   D19        3.14159   0.00000   0.00000   0.00000   0.00000   3.14159
   D20        0.00000  -0.00000   0.00000  -0.00000  -0.00000   0.00000
   D21        0.00000  -0.00000  -0.00000  -0.00000  -0.00000   0.00000
   D22       -3.14159  -0.00000  -0.00000  -0.00000  -0.00000  -3.14159
   D23       -3.14159   0.00000   0.00000   0.00000   0.00000  -3.14159
   D24        0.00000   0.00000  -0.00000   0.00000   0.00000   0.00000
   D25       -0.00000   0.00000  -0.00000   0.00000   0.00000  -0.00000
   D26        3.14159   0.00000  -0.00000   0.00000   0.00000   3.14159
   D27        3.14159   0.00000  -0.00000   0.00000   0.00000   3.14159
   D28       -0.00000   0.00000  -0.00000   0.00000   0.00000  -0.00000
   D29        3.14159  -0.00000  -0.00000   0.00000   0.00000  -3.14159
   D30        0.00000  -0.00000  -0.00000  -0.00000  -0.00000   0.00000
   D31        0.00000  -0.00000  -0.00000  -0.00000  -0.00000   0.00000
   D32       -3.14159  -0.00000   0.00000  -0.00000  -0.00000  -3.14159
   D33       -3.14159  -0.00000  -0.00000  -0.00000  -0.00000   3.14159
   D34        0.00000  -0.00000   0.00000  -0.00000  -0.00000  -0.00000
   D35       -0.00000   0.00000   0.00000   0.00000   0.00000  -0.00000
   D36        3.14159   0.00000   0.00000   0.00000   0.00000   3.14159
   D37       -0.00000  -0.00000   0.00000   0.00000   0.00000  -0.00000
   D38        3.14159  -0.00000   0.00000  -0.00000  -0.00000   3.14159
   D39        3.14159   0.00000  -0.00000   0.00000   0.00000   3.14159
   D40       -0.00000   0.00000  -0.00000   0.00000   0.00000  -0.00000
   D41       -0.00000   0.00000   0.00000   0.00000   0.00000   0.00000
   D42       -3.14159  -0.00000   0.00000  -0.00000  -0.00000  -3.14159
   D43        3.14159   0.00000  -0.00000   0.00000   0.00000  -3.14159
   D44        0.00000  -0.00000   0.00000  -0.00000  -0.00000   0.00000
   D45        0.00000   0.00000  -0.00000  -0.00000  -0.00000  -0.00000
   D46       -3.14159  -0.00000  -0.00000  -0.00000  -0.00000  -3.14159
   D47        3.14159   0.00000  -0.00000   0.00000   0.00000   3.14159
   D48        0.00000  -0.00000  -0.00000  -0.00000  -0.00000   0.00000
   D49        0.00000  -0.00000  -0.00000  -0.00000  -0.00000   0.00000
   D50       -3.14159  -0.00000  -0.00000  -0.00000  -0.00000  -3.14159
   D51        3.14159   0.00000  -0.00000   0.00000   0.00000   3.14159
   D52       -0.00000   0.00000  -0.00000   0.00000   0.00000  -0.00000
         Item               Value     Threshold  Converged?
 Maximum Force            0.060803     0.000450     NO 
 RMS     Force            0.011274     0.000300     NO 
 Maximum Displacement     0.555352     0.001800     NO 
 RMS     Displacement     0.154004     0.001200     NO 
 Predicted change in Energy=-9.729981D-03
 GradGradGradGradGradGradGradGradGradGradGradGradGradGradGradGradGradGrad

                          Input orientation:                          
 ---------------------------------------------------------------------
 Center     Atomic      Atomic             Coordinates (Angstroms)
 Number     Number       Type             X           Y           Z
 ---------------------------------------------------------------------
      1          6           0       -0.131016    0.517005    0.010562
      2          6           0        1.215798    0.557483   -0.425549
      3          6           0        1.961523    1.730936   -0.450847
      4          6           0        1.387451    2.922693   -0.037895
      5          6           0        0.073752    2.934678    0.397159
      6          6           0       -0.665144    1.752649    0.418596
      7          6           0       -0.955907   -0.806420    0.033777
      8          6           0       -0.350847   -2.010998   -0.391797
      9          6           0       -0.994141   -3.240198   -0.410715
     10          6           0       -2.314662   -3.338804    0.005822
     11          6           0       -2.959826   -2.194562    0.433277
     12          6           0       -2.315419   -0.957180    0.453364
     13          1           0        1.729016   -0.319871   -0.759404
     14          1           0        2.986656    1.714084   -0.791746
[...]

            Population analysis using the SCF Density.

 **********************************************************************

 Orbital symmetries:
       Occupied  (A) (A) (A) (A) (A) (A) (A) (A) (A) (A) (A) (A)
                 (A) (A) (A) (A) (A) (A) (A) (A) (A) (A) (A) (A)
                 (A) (A) (A) (A) (A) (A) (A) (A) (A) (A) (A) (A)
                 (A) (A) (A) (A) (A) (A) (A) (A) (A) (A) (A) (A)
                 (A) (A) (A) (A) (A) (A) (A) (A) (A) (A) (A) (A)
                 (A) (A) (A) (A) (A) (A) (A) (A) (A) (A) (A) (A)
                 (A)
       Virtual   (A) (A) (A) (A) (A) (A) (A) (A) (A) (A) (A) (A)
                 (A) (A) (A) (A) (A) (A) (A) (A) (A) (A) (A) (A)
                 (A) (A) (A) (A) (A) (A) (A) (A) (A) (A) (A) (A)
                 (A) (A) (A) (A) (A) (A) (A) (A) (A) (A) (A) (A)
                 (A) (A) (A) (A) (A) (A) (A) (A) (A) (A) (A) (A)
                 (A) (A) (A) (A) (A) (A) (A) (A) (A) (A) (A) (A)
                 (A) (A) (A) (A) (A) (A) (A) (A) (A) (A) (A) (A)
                 (A) (A) (A) (A) (A) (A) (A) (A) (A) (A) (A) (A)
                 (A) (A) (A) (A) (A) (A) (A) (A) (A) (A) (A) (A)
                 (A) (A) (A) (A) (A) (A) (A) (A) (A) (A) (A) (A)
                 (A) (A) (A) (A) (A) (A) (A) (A) (A) (A) (A) (A)
                 (A) (A) (A) (A) (A) (A) (A) (A) (A) (A) (A) (A)
                 (A) (A) (A) (A) (A) (A) (A) (A) (A) (A) (A) (A)
                 (A) (A) (A) (A) (A) (A) (A) (A) (A) (A) (A) (A)
                 (A) (A) (A) (A) (A) (A) (A) (A) (A) (A) (A) (A)
                 (A) (A) (A) (A) (A) (A) (A) (A) (A) (A) (A) (A)
                 (A) (A) (A) (A) (A) (A) (A) (A) (A) (A) (A) (A)
                 (A) (A) (A) (A) (A) (A) (A) (A) (A) (A) (A) (A)
                 (A) (A) (A) (A) (A) (A) (A) (A) (A) (A) (A) (A)
                 (A) (A) (A) (A) (A) (A) (A) (A) (A) (A) (A) (A)
                 (A) (A) (A) (A) (A) (A) (A) (A) (A) (A) (A) (A)
                 (A) (A) (A) (A) (A) (A) (A) (A) (A) (A) (A) (A)
                 (A) (A) (A) (A) (A) (A) (A) (A) (A) (A) (A) (A)
                 (A) (A) (A) (A) (A) (A) (A) (A) (A) (A) (A) (A)
                 (A) (A) (A) (A) (A) (A) (A) (A) (A) (A) (A) (A)
                 (A) (A) (A) (A) (A) (A) (A) (A) (A) (A) (A) (A)
                 (A) (A) (A) (A) (A) (A) (A) (A) (A) (A) (A) (A)
                 (A) (A) (A) (A) (A) (A) (A) (A) (A) (A) (A) (A)
                 (A) (A) (A) (A) (A) (A) (A) (A)
 The electronic state is 1-A.
 Alpha  occ. eigenvalues -- -101.57544-101.57430-101.57219-101.56383 -10.27107
 Alpha  occ. eigenvalues --  -10.26838 -10.26730 -10.25398 -10.22872 -10.21937
 Alpha  occ. eigenvalues --  -10.21768 -10.21454 -10.20465 -10.20384 -10.20364
 Alpha  occ. eigenvalues --  -10.20314  -9.48999  -9.48884  -9.48691  -9.47840
 Alpha  occ. eigenvalues --   -7.25485  -7.25369  -7.25161  -7.24478  -7.24420
 Alpha  occ. eigenvalues --   -7.24363  -7.24308  -7.24299  -7.24174  -7.24122
 Alpha  occ. eigenvalues --   -7.23325  -7.23288  -0.94466  -0.91259  -0.90245
 Alpha  occ. eigenvalues --   -0.88013  -0.86208  -0.84063  -0.79301  -0.77967
 Alpha  occ. eigenvalues --   -0.75736  -0.73168  -0.65953  -0.64353  -0.63349
 Alpha  occ. eigenvalues --   -0.60293  -0.55239  -0.53169  -0.51797  -0.49494
 Alpha  occ. eigenvalues --   -0.49363  -0.47958  -0.46295  -0.45705  -0.45418
 Alpha  occ. eigenvalues --   -0.44407  -0.42378  -0.41761  -0.40773  -0.39254
 Alpha  occ. eigenvalues --   -0.38613  -0.38256  -0.36675  -0.35324  -0.34627
 Alpha  occ. eigenvalues --   -0.33470  -0.33152  -0.32698  -0.32673  -0.28752
 Alpha  occ. eigenvalues --   -0.28410  -0.27045  -0.25389
 Alpha virt. eigenvalues --   -0.06385  -0.05512  -0.04060  -0.03051  -0.02344
 Alpha virt. eigenvalues --   -0.00967  -0.00011   0.00597   0.00901   0.01560
 Alpha virt. eigenvalues --    0.02084   0.02626   0.03566   0.03895   0.04186
 Alpha virt. eigenvalues --    0.04379   0.05285   0.05864   0.06202   0.06564
 Alpha virt. eigenvalues --    0.07018   0.07887   0.08327   0.08403   0.08985
 Alpha virt. eigenvalues --    0.09215   0.09904   0.10255   0.10511   0.11103
 Alpha virt. eigenvalues --    0.11369   0.11811   0.11894   0.12247   0.12600
 Alpha virt. eigenvalues --    0.12782   0.13377   0.13636   0.14451   0.14691
 Alpha virt. eigenvalues --    0.14737   0.14874   0.15501   0.15880   0.16480
 Alpha virt. eigenvalues --    0.17481   0.17658   0.18171   0.18488   0.18803
 Alpha virt. eigenvalues --    0.18987   0.19273   0.19671   0.20072   0.20342
 Alpha virt. eigenvalues --    0.20601   0.20889   0.21307   0.21690   0.22114
 Alpha virt. eigenvalues --    0.22870   0.23284   0.23476   0.23819   0.24283
 Alpha virt. eigenvalues --    0.24651   0.24980   0.25017   0.25509   0.26290
 Alpha virt. eigenvalues --    0.26730   0.27100   0.27480   0.27860   0.28373
 Alpha virt. eigenvalues --    0.28868   0.29085   0.29796   0.30329   0.30794
 Alpha virt. eigenvalues --    0.31602   0.32256   0.32925   0.33864   0.34150
 Alpha virt. eigenvalues --    0.35177   0.40248   0.41524   0.42862   0.43750
 Alpha virt. eigenvalues --    0.44329   0.44610   0.45372   0.45729   0.46819
 Alpha virt. eigenvalues --    0.46981   0.47374   0.47979   0.48745   0.48932
 Alpha virt. eigenvalues --    0.50524   0.50836   0.51930   0.53521   0.55029
 Alpha virt. eigenvalues --    0.55207   0.56396   0.56665   0.57150   0.57485
 Alpha virt. eigenvalues --    0.58106   0.59290   0.59579   0.60234   0.61337
 Alpha virt. eigenvalues --    0.61476   0.62311   0.62875   0.64028   0.64782
 Alpha virt. eigenvalues --    0.65727   0.66307   0.67248   0.67803   0.68184
 Alpha virt. eigenvalues --    0.68839   0.69467   0.69855   0.71050   0.71470
 Alpha virt. eigenvalues --    0.71611   0.73272   0.75125   0.78142   0.79746
 Alpha virt. eigenvalues --    0.81130   0.82111   0.82698   0.83156   0.83427
 Alpha virt. eigenvalues --    0.84111   0.84438   0.84703   0.84835   0.85080
 Alpha virt. eigenvalues --    0.85523   0.85728   0.85995   0.86453   0.87724
 Alpha virt. eigenvalues --    0.88282   0.88438   0.88904   0.89898   0.90945
 Alpha virt. eigenvalues --    0.91081   0.91474   0.91890   0.93483   0.93662
 Alpha virt. eigenvalues --    0.94176   0.94680   0.95348   0.96760   0.97112
 Alpha virt. eigenvalues --    0.99316   1.00094   1.01086   1.01507   1.02963
 Alpha virt. eigenvalues --    1.04456   1.06172   1.08560   1.11169   1.11663
 Alpha virt. eigenvalues --    1.11982   1.13656   1.16821   1.18720   1.21680
 Alpha virt. eigenvalues --    1.22342   1.24003   1.24522   1.26907   1.27569
 Alpha virt. eigenvalues --    1.28485   1.29560   1.29909   1.31728   1.33828
 Alpha virt. eigenvalues --    1.35733   1.40760   1.43757   1.48038   1.49679
 Alpha virt. eigenvalues --    1.50995   1.51152   1.52527   1.54682   1.54875
 Alpha virt. eigenvalues --    1.55735   1.58272   1.59558   1.60651   1.62963
 Alpha virt. eigenvalues --    1.64319   1.67011   1.68367   1.69898   1.71800
 Alpha virt. eigenvalues --    1.72110   1.73424   1.75690   1.77060   1.79486
 Alpha virt. eigenvalues --    1.82018   1.85697   1.86837   1.88942   1.90153
 Alpha virt. eigenvalues --    1.90714   1.91861   1.92439   1.93536   1.94336
 Alpha virt. eigenvalues --    1.95634   1.96836   1.97572   2.00161   2.02168
 Alpha virt. eigenvalues --    2.04252   2.04577   2.06515   2.07172   2.10830
 Alpha virt. eigenvalues --    2.12328   2.16081   2.19180   2.22951   2.23514
 Alpha virt. eigenvalues --    2.26266   2.27460   2.27991   2.28450   2.29207
 Alpha virt. eigenvalues --    2.30469   2.34144   2.36797   2.38239   2.40017
 Alpha virt. eigenvalues --    2.40792   2.43025   2.43508   2.45817   2.49018
 Alpha virt. eigenvalues --    2.51169   2.53532   2.55242   2.56473   2.59483
 Alpha virt. eigenvalues --    2.61715   2.62030   2.64744   2.65438   2.67091
 Alpha virt. eigenvalues --    2.69108   2.70560   2.72347   2.73188   2.74792
 Alpha virt. eigenvalues --    2.74828   2.75432   2.76937   2.77243   2.79019
 Alpha virt. eigenvalues --    2.79366   2.80771   2.83313   2.84183   2.88181
 Alpha virt. eigenvalues --    2.91575   2.92037   2.97278   2.99310   3.04911
 Alpha virt. eigenvalues --    3.06545   3.08250   3.11858   3.13234   3.16287
 Alpha virt. eigenvalues --    3.16821   3.22203   3.25982   3.32859   3.34515
 Alpha virt. eigenvalues --    3.40754   3.47369   3.49692   3.52254   3.58497
 Alpha virt. eigenvalues --    3.64873   3.74892   3.79334   3.82984   3.91727
 Alpha virt. eigenvalues --    3.96624   4.11174   4.12593   4.13649   4.37754
 Alpha virt. eigenvalues --    4.80035   4.83058   9.75052   9.77145   9.79094
 Alpha virt. eigenvalues --    9.80401  23.39224  23.59813  23.82530  23.88687
 Alpha virt. eigenvalues --   23.90212  23.93830  23.95596  24.02350  24.05127
 Alpha virt. eigenvalues --   24.07783  24.10271  24.16028  25.77989  25.82531
 Alpha virt. eigenvalues --   25.86104  25.88276  26.07181  26.11288  26.11902
 Alpha virt. eigenvalues --   26.29090  26.49205  26.58941  26.67763  26.77801
 Alpha virt. eigenvalues --  215.74092 215.76173 215.78514 215.80271
          Condensed to atoms (all electrons):
               1          2          3          4          5          6
     1  C   25.729681  -3.266834  -0.499444  -7.801882   1.478206  -7.503085
     2  C   -3.266834  29.885356  -3.743497   0.519276  -1.157578 -15.900028
     3  C   -0.499444  -3.743497  20.800703  -2.067687  -8.363569  -0.539109
     4  C   -7.801882   0.519276  -2.067687  17.934894  -4.202425   2.353464
     5  C    1.478206  -1.157578  -8.363569  -4.202425  23.118057  -5.482642
     6  C   -7.503085 -15.900028  -0.539109   2.353464  -5.482642  34.045656
     7  C    2.529684  -0.006007   0.474007  -0.730355   0.892027  -2.401143
     8  C   -1.939121   2.669125   0.126976   0.044099   0.235383  -2.450805
     9  C   -0.843670  -0.082363   0.006115   0.107837   0.217795  -0.281933
    10  C   -0.249865  -0.167645  -0.045831   0.043975  -0.091067   0.660392
    11  C   -0.582016   0.399897   0.081865  -0.024208  -0.139619  -0.295912
    12  C   -2.148134  -2.814477   0.147900   0.103583  -0.372695   4.090086
    13  H    0.056054   0.297430  -0.013665  -0.021100  -0.016655   0.016646
    14  H   -0.007366  -0.008252   0.251326   0.083758   0.052670  -0.010965
    15  H   -0.001105  -0.016234   0.065447   0.079611   0.243093  -0.017537
    16  H    0.036454   0.038117  -0.025119   0.004991  -0.048994   0.363272
    17  H   -0.040674   0.106069  -0.008028   0.003735  -0.005619  -0.049788
    18  H    0.010682   0.001247  -0.000140  -0.000110  -0.000107  -0.003221
    19  Cl  -0.028982  -0.384073  -0.054648  -0.028031   0.253821   0.199044
    20  Cl   0.016596   0.007435   0.000852   0.001013  -0.001455  -0.000151
    21  Cl  -0.194160   0.289648   0.054758  -1.259300   0.156897   0.248936
    22  Cl  -0.043157   0.021379   0.027996  -0.000167   0.001274  -0.042320
               7          8          9         10         11         12
     1  C    2.529684  -1.939121  -0.843670  -0.249865  -0.582016  -2.148134
     2  C   -0.006007   2.669125  -0.082363  -0.167645   0.399897  -2.814477
     3  C    0.474007   0.126976   0.006115  -0.045831   0.081865   0.147900
     4  C   -0.730355   0.044099   0.107837   0.043975  -0.024208   0.103583
     5  C    0.892027   0.235383   0.217795  -0.091067  -0.139619  -0.372695
     6  C   -2.401143  -2.450805  -0.281933   0.660392  -0.295912   4.090086
     7  C   16.715590   0.993127  -4.609193   0.564599  -1.058186  -6.658374
     8  C    0.993127  14.407368  -0.548187  -4.828500   3.027814  -4.998368
     9  C   -4.609193  -0.548187  18.847134  -4.487756  -3.390955   1.140275
    10  C    0.564599  -4.828500  -4.487756  17.648564   0.046332  -2.264793
    11  C   -1.058186   3.027814  -3.390955   0.046332  15.178871  -6.004561
    12  C   -6.658374  -4.998368   1.140275  -2.264793  -6.004561  25.502612
    13  H    0.007459   0.021743  -0.015156  -0.007183   0.010309   0.013015
    14  H   -0.003675  -0.001751  -0.000361   0.000113  -0.000217  -0.001102
    15  H   -0.002693  -0.002868  -0.000757   0.000072   0.001355   0.006130
    16  H   -0.014821  -0.012263  -0.010335   0.003929  -0.001824   0.021149
    17  H    0.029751   0.349959  -0.070179   0.049380  -0.022368   0.003842
    18  H    0.087797  -0.030456   0.055355  -0.004782   0.252943  -0.026771
    19  Cl  -0.289425  -0.104309   0.370764  -0.467232  -0.762984   0.323953
    20  Cl   0.150709   0.060704  -0.207955  -0.321316   0.121769  -0.418167
    21  Cl  -0.007478   0.015745   0.008186  -0.000300  -0.003452  -0.022503
    22  Cl  -0.806762  -0.019154  -0.291677  -0.138340   0.106336   0.416089
              13         14         15         16         17         18
     1  C    0.056054  -0.007366  -0.001105   0.036454  -0.040674   0.010682
     2  C    0.297430  -0.008252  -0.016234   0.038117   0.106069   0.001247
     3  C   -0.013665   0.251326   0.065447  -0.025119  -0.008028  -0.000140
     4  C   -0.021100   0.083758   0.079611   0.004991   0.003735  -0.000110
     5  C   -0.016655   0.052670   0.243093  -0.048994  -0.005619  -0.000107
     6  C    0.016646  -0.010965  -0.017537   0.363272  -0.049788  -0.003221
     7  C    0.007459  -0.003675  -0.002693  -0.014821   0.029751   0.087797
     8  C    0.021743  -0.001751  -0.002868  -0.012263   0.349959  -0.030456
     9  C   -0.015156  -0.000361  -0.000757  -0.010335  -0.070179   0.055355
    10  C   -0.007183   0.000113   0.000072   0.003929   0.049380  -0.004782
    11  C    0.010309  -0.000217   0.001355  -0.001824  -0.022368   0.252943
    12  C    0.013015  -0.001102   0.006130   0.021149   0.003842  -0.026771
    13  H    0.526206  -0.007757   0.000067  -0.000240  -0.000912   0.000002
    14  H   -0.007757   0.512219  -0.000312   0.000065   0.000038   0.000000
    15  H    0.000067  -0.000312   0.512492  -0.007599   0.000003   0.000000
    16  H   -0.000240   0.000065  -0.007599   0.518426   0.000005   0.000019
    17  H   -0.000912   0.000038   0.000003   0.000005   0.501435   0.000038
    18  H    0.000002   0.000000   0.000000   0.000019   0.000038   0.489883
    19  Cl  -0.002005  -0.000215  -0.001264  -0.003118  -0.000031  -0.002782
    20  Cl  -0.000020  -0.000001  -0.000000  -0.000041   0.000456  -0.005339
    21  Cl   0.000220  -0.010384  -0.010690  -0.000086  -0.000180  -0.000001
    22  Cl   0.000697  -0.000011  -0.000002  -0.000135  -0.004066   0.000287
              19         20         21         22
     1  C   -0.028982   0.016596  -0.194160  -0.043157
     2  C   -0.384073   0.007435   0.289648   0.021379
     3  C   -0.054648   0.000852   0.054758   0.027996
     4  C   -0.028031   0.001013  -1.259300  -0.000167
     5  C    0.253821  -0.001455   0.156897   0.001274
     6  C    0.199044  -0.000151   0.248936  -0.042320
     7  C   -0.289425   0.150709  -0.007478  -0.806762
     8  C   -0.104309   0.060704   0.015745  -0.019154
     9  C    0.370764  -0.207955   0.008186  -0.291677
    10  C   -0.467232  -0.321316  -0.000300  -0.138340
    11  C   -0.762984   0.121769  -0.003452   0.106336
    12  C    0.323953  -0.418167  -0.022503   0.416089
    13  H   -0.002005  -0.000020   0.000220   0.000697
    14  H   -0.000215  -0.000001  -0.010384  -0.000011
    15  H   -0.001264  -0.000000  -0.010690  -0.000002
    16  H   -0.003118  -0.000041  -0.000086  -0.000135
    17  H   -0.000031   0.000456  -0.000180  -0.004066
    18  H   -0.002782  -0.005339  -0.000001   0.000287
    19  Cl  17.625499  -0.039964   0.003367  -0.001673
    20  Cl  -0.039964  17.313096   0.000017  -0.161415
    21  Cl   0.003367   0.000017  17.357631   0.000100
    22  Cl  -0.001673  -0.161415   0.000100  17.403575
 Mulliken charges:
               1
     1  C    1.292137
     2  C   -0.687994
     3  C   -0.677209
     4  C    0.855029
     5  C   -0.766796
     6  C   -0.998857
     7  C    0.143363
     8  C   -1.016262
     9  C    0.087016
    10  C    0.057254
    11  C   -0.941191
    12  C   -0.038688
    13  H    0.134846
    14  H    0.152182
    15  H    0.152791
    16  H    0.138148
    17  H    0.157136
    18  H    0.175456
    19  Cl   0.394286
    20  Cl   0.483178
    21  Cl   0.373029
    22  Cl   0.531147
 Sum of Mulliken charges =  -0.00000
 Mulliken charges with hydrogens summed into heavy atoms:
               1
     1  C    1.292137
     2  C   -0.553148
     3  C   -0.525026
     4  C    0.855029
     5  C   -0.614005
     6  C   -0.860709
     7  C    0.143363
     8  C   -0.859127
     9  C    0.087016
    10  C    0.057254
    11  C   -0.765735
    12  C   -0.038688
    19  Cl   0.394286
    20  Cl   0.483178
    21  Cl   0.373029
    22  Cl   0.531147
 Electronic spatial extent (au):  <R**2>=           7267.4997
 Charge=              0.0000 electrons
 Dipole moment (field-independent basis, Debye):
    X=             -0.1248    Y=              0.0320    Z=              0.0538  Tot=              0.1396
 Quadrupole moment (field-independent basis, Debye-Ang):
   XX=           -132.2603   YY=           -119.1816   ZZ=           -118.0720
   XY=              2.4698   XZ=             -0.8133   YZ=              4.1767
 Traceless Quadrupole moment (field-independent basis, Debye-Ang):
   XX=             -9.0890   YY=              3.9896   ZZ=              5.0993
   XY=              2.4698   XZ=             -0.8133   YZ=              4.1767
 Octapole moment (field-independent basis, Debye-Ang**2):
  XXX=             45.7284  YYY=             -0.6497  ZZZ=              0.0985  XYY=              6.6433
  XXY=             18.5805  XXZ=              1.5120  XZZ=             -7.4813  YZZ=             -0.6057
  YYZ=             -2.0713  XYZ=            -12.3219
 Hexadecapole moment (field-independent basis, Debye-Ang**3):
 XXXX=          -7983.6699 YYYY=          -1568.9523 ZZZZ=           -309.6734 XXXY=            -16.1641
 XXXZ=            -13.2268 YYYX=            -21.8218 YYYZ=             -3.9914 ZZZX=             -1.4200
 ZZZY=             13.2330 XXYY=          -1531.6227 XXZZ=          -1325.6323 YYZZ=           -316.0183
 XXYZ=             34.2946 YYXZ=              8.0762 ZZXY=             -4.3744
 N-N= 1.401942395190D+03 E-N=-8.248078050373D+03  KE= 2.295553578508D+03
 1\1\GINC-LOCALHOST\FOpt\RB3LYP\6-311+G(d,p)\C12H6Cl4\GOUR\16-Mar-2022\
 0\\# opt b3lyp/6-311+g(d,p) scf=xqc\\Title Card Required\\0,1\C,-0.155
 8657552,0.4826669381,0.0394140963\C,1.2299554319,0.4746727368,0.236592
 9269\C,1.9707914048,1.6525636034,0.1852726698\C,1.3169675286,2.8518861
 374,-0.0737110866\C,-0.0589423277,2.8884991603,-0.279852991\C,-0.78755
 21358,1.7052430921,-0.2189372054\C,-0.9172878625,-0.7958702303,0.05769
 69201\C,-0.5408874874,-1.820489203,-0.8190829967\C,-1.2020571558,-3.04
 34448139,-0.8587075454\C,-2.2807982788,-3.2704623107,-0.0006239937\C,-
 2.6721196835,-2.2721728226,0.886163911\C,-1.9988944836,-1.0563089631,0
 .912993224\H,1.7368345536,-0.4598739448,0.4486593811\H,3.0407836366,1.
 6391698677,0.3481405981\H,-0.5524913354,3.8290644338,-0.4880834097\H,-
 1.8571944122,1.735716915,-0.3862607859\H,0.2805383609,-1.6511830621,-1
 .5033926529\H,-3.4967760946,-2.4505280329,1.5622750407\Cl,-2.524177650
 3,0.1247923704,2.1020472296\Cl,-3.1549286672,-4.7794055454,-0.00256443
 54\Cl,2.2417963853,4.3441662736,-0.1444386737\Cl,-0.664104172,-4.25625
 64,-1.9928731112\\Version=EM64L-G16RevB.01\State=1-A\HF=-2301.901994\R
 MSD=3.789e-09\RMSF=4.143e-06\Dipole=0.0011124,0.054734,-0.0044639\Quad
 rupole=4.5532547,-4.6702077,0.116953,-4.6520902,-0.2398802,-2.1953333\
 PG=C01 [X(C12H6Cl4)]\\@


 "TIGER, TIGER BURNING BRIGHT
 IN THE FOREST OF THE NIGHT.
 WHAT IMMORTAL HAND OR EYE
 CAN FRAME THY FEARFUL SYMMETRYE?"
                     - WILLIAM BLAKE
 Job cpu time:       0 days 16 hours  1 minutes 15.8 seconds.
 Elapsed time:       0 days  4 hours  1 minutes  1.9 seconds.
 File lengths (MBytes):  RWF=    120 Int=      0 D2E=      0 Chk=     19 Scr=      1
 Normal termination of Gaussian 16 at Wed Mar 16 03:40:05 2022.
