 Entering Gaussian System, Link 0=g16
 Input=2,4,4prime-Trichlorobiphenyl.gjf
 Output=2,4,4prime-Trichlorobiphenyl.log
 Initial command:
 /usr/local/g16/l1.exe "/scratch/pkc/Gau-19666.inp" -scrdir="/scratch/pkc/"
 Entering Link 1 = /usr/local/g16/l1.exe PID=     19667.
  
 Copyright (c) 1988-2017, Gaussian, Inc.  All Rights Reserved.
  
 This is part of the Gaussian(R) 16 program.  It is based on
 the Gaussian(R) 09 system (copyright 2009, Gaussian, Inc.),
 the Gaussian(R) 03 system (copyright 2003, Gaussian, Inc.),
 the Gaussian(R) 98 system (copyright 1998, Gaussian, Inc.),
 the Gaussian(R) 94 system (copyright 1995, Gaussian, Inc.),
 the Gaussian 92(TM) system (copyright 1992, Gaussian, Inc.),
 the Gaussian 90(TM) system (copyright 1990, Gaussian, Inc.),
 the Gaussian 88(TM) system (copyright 1988, Gaussian, Inc.),
 the Gaussian 86(TM) system (copyright 1986, Carnegie Mellon
 University), and the Gaussian 82(TM) system (copyright 1983,
 Carnegie Mellon University). Gaussian is a federally registered
 trademark of Gaussian, Inc.
  
 This software contains proprietary and confidential information,
 including trade secrets, belonging to Gaussian, Inc.
  
 This software is provided under written license and may be
 used, copied, transmitted, or stored only in accord with that
 written license.
  
 The following legend is applicable only to US Government
 contracts under FAR:
  
                    RESTRICTED RIGHTS LEGEND
  
 Use, reproduction and disclosure by the US Government is
 subject to restrictions as set forth in subparagraphs (a)
 and (c) of the Commercial Computer Software - Restricted
 Rights clause in FAR 52.227-19.
  
 Gaussian, Inc.
 340 Quinnipiac St., Bldg. 40, Wallingford CT 06492
  
  
 ---------------------------------------------------------------
 Warning -- This program may not be used in any manner that
 competes with the business of Gaussian, Inc. or will provide
 assistance to any competitor of Gaussian, Inc.  The licensee
 of this program is prohibited from giving any competitor of
 Gaussian, Inc. access to this program.  By using this program,
 the user acknowledges that Gaussian, Inc. is engaged in the
 business of creating and licensing software in the field of
 computational chemistry and represents and warrants to the
 licensee that it is not a competitor of Gaussian, Inc. and that
 it will not use this program in any manner prohibited above.
 ---------------------------------------------------------------
  

 Cite this work as:
 Gaussian 16, Revision B.01,
 M. J. Frisch, G. W. Trucks, H. B. Schlegel, G. E. Scuseria, 
 M. A. Robb, J. R. Cheeseman, G. Scalmani, V. Barone, 
 G. A. Petersson, H. Nakatsuji, X. Li, M. Caricato, A. V. Marenich, 
 J. Bloino, B. G. Janesko, R. Gomperts, B. Mennucci, H. P. Hratchian, 
 J. V. Ortiz, A. F. Izmaylov, J. L. Sonnenberg, D. Williams-Young, 
 F. Ding, F. Lipparini, F. Egidi, J. Goings, B. Peng, A. Petrone, 
 T. Henderson, D. Ranasinghe, V. G. Zakrzewski, J. Gao, N. Rega, 
 G. Zheng, W. Liang, M. Hada, M. Ehara, K. Toyota, R. Fukuda, 
 J. Hasegawa, M. Ishida, T. Nakajima, Y. Honda, O. Kitao, H. Nakai, 
 T. Vreven, K. Throssell, J. A. Montgomery, Jr., J. E. Peralta, 
 F. Ogliaro, M. J. Bearpark, J. J. Heyd, E. N. Brothers, K. N. Kudin, 
 V. N. Staroverov, T. A. Keith, R. Kobayashi, J. Normand, 
 K. Raghavachari, A. P. Rendell, J. C. Burant, S. S. Iyengar, 
 J. Tomasi, M. Cossi, J. M. Millam, M. Klene, C. Adamo, R. Cammi, 
 J. W. Ochterski, R. L. Martin, K. Morokuma, O. Farkas, 
 J. B. Foresman, and D. J. Fox, Gaussian, Inc., Wallingford CT, 2016.
 
 ******************************************
 Gaussian 16:  EM64L-G16RevB.01 20-Dec-2017
                15-Mar-2022 
 ******************************************
 %mem=10GB
 %nprocshared=4
 Will use up to    4 processors via shared memory.
 --------------------------------
 # opt b3lyp/6-311+g(d,p) scf=xqc
 --------------------------------
 1/18=20,19=15,26=3,38=1/1,3;
 2/9=110,12=2,17=6,18=5,40=1/2;
 3/5=4,6=6,7=111,11=2,25=1,30=1,71=1,74=-5/1,2,3;
 4//1;
 5/5=2,8=3,13=1,38=5/2,8;
 6/7=2,8=2,9=2,10=2,28=1/1;
 7//1,2,3,16;
 1/18=20,19=15,26=3/3(2);
 2/9=110/2;
 99//99;
 2/9=110/2;
 3/5=4,6=6,7=111,11=2,25=1,30=1,71=1,74=-5/1,2,3;
 4/5=5,16=3,69=1/1;
 5/5=2,8=3,13=1,38=5/2,8;
 7//1,2,3,16;
 1/18=20,19=15,26=3/3(-5);
 2/9=110/2;
 6/7=2,8=2,9=2,10=2,19=2,28=1/1;
 99/9=1/99;
 -------------------
 Title Card Required
 -------------------
 Symbolic Z-matrix:
 Charge =  0 Multiplicity = 1
 C                    -1.0184    0.90368   0.94947 
 C                     0.31398   0.93357   0.51613 
 C                     1.02187   2.14302   0.51005 
 C                     0.39739   3.32258   0.93733 
 C                    -0.93499   3.2927    1.37067 
 C                    -1.64289   2.08325   1.37675 
 C                    -1.7963   -0.42539   0.95615 
 C                    -1.17182  -1.60495   0.52887 
 C                    -1.87971  -2.8144    0.53495 
 C                    -3.21209  -2.84429   0.9683 
 C                    -3.83658  -1.66472   1.39557 
 C                    -3.12868  -0.45527   1.3895 
 H                     0.79079   0.03294   0.18989 
 H                     2.03918   2.16584   0.17919 
 H                    -1.4118    4.19332   1.69691 
 H                    -2.66019   2.06043   1.70762 
 H                    -0.15451  -1.58213   0.198 
 H                    -1.4029   -3.71503   0.20871 
 H                    -4.85388  -1.68754   1.72645 
 Cl                   -3.91297   1.02613   1.92611 
 Cl                   -4.10112  -4.36322   0.97593 
 Cl                    1.28642   4.84152   0.9297 
 

 GradGradGradGradGradGradGradGradGradGradGradGradGradGradGradGradGradGrad
 Berny optimization.
 Initialization pass.
                           ----------------------------
                           !    Initial Parameters    !
                           ! (Angstroms and Degrees)  !
 --------------------------                            --------------------------
 ! Name  Definition              Value          Derivative Info.                !
 --------------------------------------------------------------------------------
 ! R1    R(1,2)                  1.4014         estimate D2E/DX2                !
 ! R2    R(1,6)                  1.4014         estimate D2E/DX2                !
 ! R3    R(1,7)                  1.54           estimate D2E/DX2                !
 ! R4    R(2,3)                  1.4014         estimate D2E/DX2                !
 ! R5    R(2,13)                 1.07           estimate D2E/DX2                !
 ! R6    R(3,4)                  1.4014         estimate D2E/DX2                !
 ! R7    R(3,14)                 1.07           estimate D2E/DX2                !
 ! R8    R(4,5)                  1.4014         estimate D2E/DX2                !
 ! R9    R(4,22)                 1.76           estimate D2E/DX2                !
 ! R10   R(5,6)                  1.4014         estimate D2E/DX2                !
 ! R11   R(5,15)                 1.07           estimate D2E/DX2                !
 ! R12   R(6,16)                 1.07           estimate D2E/DX2                !
 ! R13   R(7,8)                  1.4014         estimate D2E/DX2                !
 ! R14   R(7,12)                 1.4014         estimate D2E/DX2                !
 ! R15   R(8,9)                  1.4014         estimate D2E/DX2                !
 ! R16   R(8,17)                 1.07           estimate D2E/DX2                !
 ! R17   R(9,10)                 1.4014         estimate D2E/DX2                !
 ! R18   R(9,18)                 1.07           estimate D2E/DX2                !
 ! R19   R(10,11)                1.4014         estimate D2E/DX2                !
 ! R20   R(10,21)                1.76           estimate D2E/DX2                !
 ! R21   R(11,12)                1.4014         estimate D2E/DX2                !
 ! R22   R(11,19)                1.07           estimate D2E/DX2                !
 ! R23   R(12,20)                1.76           estimate D2E/DX2                !
 ! A1    A(2,1,6)              120.0            estimate D2E/DX2                !
 ! A2    A(2,1,7)              120.0            estimate D2E/DX2                !
 ! A3    A(6,1,7)              120.0            estimate D2E/DX2                !
 ! A4    A(1,2,3)              120.0            estimate D2E/DX2                !
 ! A5    A(1,2,13)             120.0            estimate D2E/DX2                !
 ! A6    A(3,2,13)             120.0            estimate D2E/DX2                !
 ! A7    A(2,3,4)              120.0            estimate D2E/DX2                !
 ! A8    A(2,3,14)             120.0            estimate D2E/DX2                !
 ! A9    A(4,3,14)             120.0            estimate D2E/DX2                !
 ! A10   A(3,4,5)              120.0            estimate D2E/DX2                !
 ! A11   A(3,4,22)             120.0            estimate D2E/DX2                !
 ! A12   A(5,4,22)             120.0            estimate D2E/DX2                !
 ! A13   A(4,5,6)              120.0            estimate D2E/DX2                !
 ! A14   A(4,5,15)             120.0            estimate D2E/DX2                !
 ! A15   A(6,5,15)             120.0            estimate D2E/DX2                !
 ! A16   A(1,6,5)              120.0            estimate D2E/DX2                !
 ! A17   A(1,6,16)             120.0            estimate D2E/DX2                !
 ! A18   A(5,6,16)             120.0            estimate D2E/DX2                !
 ! A19   A(1,7,8)              120.0            estimate D2E/DX2                !
 ! A20   A(1,7,12)             120.0            estimate D2E/DX2                !
 ! A21   A(8,7,12)             120.0            estimate D2E/DX2                !
 ! A22   A(7,8,9)              120.0            estimate D2E/DX2                !
 ! A23   A(7,8,17)             120.0            estimate D2E/DX2                !
 ! A24   A(9,8,17)             120.0            estimate D2E/DX2                !
 ! A25   A(8,9,10)             120.0            estimate D2E/DX2                !
 ! A26   A(8,9,18)             120.0            estimate D2E/DX2                !
 ! A27   A(10,9,18)            120.0            estimate D2E/DX2                !
 ! A28   A(9,10,11)            120.0            estimate D2E/DX2                !
 ! A29   A(9,10,21)            120.0            estimate D2E/DX2                !
 ! A30   A(11,10,21)           120.0            estimate D2E/DX2                !
 ! A31   A(10,11,12)           120.0            estimate D2E/DX2                !
 ! A32   A(10,11,19)           120.0            estimate D2E/DX2                !
 ! A33   A(12,11,19)           120.0            estimate D2E/DX2                !
 ! A34   A(7,12,11)            120.0            estimate D2E/DX2                !
 ! A35   A(7,12,20)            120.0            estimate D2E/DX2                !
 ! A36   A(11,12,20)           120.0            estimate D2E/DX2                !
 ! D1    D(6,1,2,3)              0.0001         estimate D2E/DX2                !
 ! D2    D(6,1,2,13)           180.0            estimate D2E/DX2                !
 ! D3    D(7,1,2,3)           -180.0            estimate D2E/DX2                !
 ! D4    D(7,1,2,13)            -0.0001         estimate D2E/DX2                !
 ! D5    D(2,1,6,5)             -0.0001         estimate D2E/DX2                !
 ! D6    D(2,1,6,16)           180.0            estimate D2E/DX2                !
 ! D7    D(7,1,6,5)            180.0            estimate D2E/DX2                !
 ! D8    D(7,1,6,16)             0.0            estimate D2E/DX2                !
 ! D9    D(2,1,7,8)             -0.0001         estimate D2E/DX2                !
 ! D10   D(2,1,7,12)           179.9998         estimate D2E/DX2                !
 ! D11   D(6,1,7,8)            179.9999         estimate D2E/DX2                !
 ! D12   D(6,1,7,12)            -0.0002         estimate D2E/DX2                !
 ! D13   D(1,2,3,4)              0.0            estimate D2E/DX2                !
 ! D14   D(1,2,3,14)           180.0            estimate D2E/DX2                !
 ! D15   D(13,2,3,4)          -179.9999         estimate D2E/DX2                !
 ! D16   D(13,2,3,14)            0.0001         estimate D2E/DX2                !
 ! D17   D(2,3,4,5)             -0.0001         estimate D2E/DX2                !
 ! D18   D(2,3,4,22)           180.0            estimate D2E/DX2                !
 ! D19   D(14,3,4,5)           179.9999         estimate D2E/DX2                !
 ! D20   D(14,3,4,22)            0.0            estimate D2E/DX2                !
 ! D21   D(3,4,5,6)              0.0001         estimate D2E/DX2                !
 ! D22   D(3,4,5,15)          -179.9999         estimate D2E/DX2                !
 ! D23   D(22,4,5,6)          -180.0            estimate D2E/DX2                !
 ! D24   D(22,4,5,15)            0.0            estimate D2E/DX2                !
 ! D25   D(4,5,6,1)              0.0            estimate D2E/DX2                !
 ! D26   D(4,5,6,16)           179.9999         estimate D2E/DX2                !
 ! D27   D(15,5,6,1)           180.0            estimate D2E/DX2                !
 ! D28   D(15,5,6,16)           -0.0001         estimate D2E/DX2                !
 ! D29   D(1,7,8,9)            179.9999         estimate D2E/DX2                !
 ! D30   D(1,7,8,17)             0.0001         estimate D2E/DX2                !
 ! D31   D(12,7,8,9)             0.0001         estimate D2E/DX2                !
 ! D32   D(12,7,8,17)         -179.9998         estimate D2E/DX2                !
 ! D33   D(1,7,12,11)         -179.9999         estimate D2E/DX2                !
 ! D34   D(1,7,12,20)            0.0            estimate D2E/DX2                !
 ! D35   D(8,7,12,11)           -0.0001         estimate D2E/DX2                !
 ! D36   D(8,7,12,20)          179.9999         estimate D2E/DX2                !
 ! D37   D(7,8,9,10)             0.0            estimate D2E/DX2                !
 ! D38   D(7,8,9,18)           180.0            estimate D2E/DX2                !
 ! D39   D(17,8,9,10)          179.9998         estimate D2E/DX2                !
 ! D40   D(17,8,9,18)           -0.0002         estimate D2E/DX2                !
 ! D41   D(8,9,10,11)            0.0            estimate D2E/DX2                !
 ! D42   D(8,9,10,21)         -179.9999         estimate D2E/DX2                !
 ! D43   D(18,9,10,11)         180.0            estimate D2E/DX2                !
 ! D44   D(18,9,10,21)           0.0001         estimate D2E/DX2                !
 ! D45   D(9,10,11,12)           0.0            estimate D2E/DX2                !
 ! D46   D(9,10,11,19)        -179.9998         estimate D2E/DX2                !
 ! D47   D(21,10,11,12)        179.9999         estimate D2E/DX2                !
 ! D48   D(21,10,11,19)          0.0001         estimate D2E/DX2                !
 ! D49   D(10,11,12,7)           0.0            estimate D2E/DX2                !
 ! D50   D(10,11,12,20)       -179.9999         estimate D2E/DX2                !
 ! D51   D(19,11,12,7)         179.9999         estimate D2E/DX2                !
 ! D52   D(19,11,12,20)         -0.0001         estimate D2E/DX2                !
 --------------------------------------------------------------------------------
 Trust Radius=3.00D-01 FncErr=1.00D-07 GrdErr=1.00D-06 EigMax=2.50D+02 EigMin=1.00D-04
 Number of steps in this run=    121 maximum allowed number of steps=    132.
 GradGradGradGradGradGradGradGradGradGradGradGradGradGradGradGradGradGrad

                          Input orientation:                          
 ---------------------------------------------------------------------
 Center     Atomic      Atomic             Coordinates (Angstroms)
 Number     Number       Type             X           Y           Z
 ---------------------------------------------------------------------
      1          6           0       -1.018400    0.903682    0.949474
      2          6           0        0.313981    0.933567    0.516127
      3          6           0        1.021875    2.143018    0.510055
      4          6           0        0.397388    3.322583    0.937329
      5          6           0       -0.934994    3.292698    1.370674
      6          6           0       -1.642888    2.083247    1.376747
      7          6           0       -1.796305   -0.425386    0.956147
      8          6           0       -1.171817   -1.604951    0.528872
      9          6           0       -1.879710   -2.814402    0.534947
     10          6           0       -3.212090   -2.844289    0.968297
     11          6           0       -3.836577   -1.664724    1.395572
     12          6           0       -3.128684   -0.455272    1.389498
     13          1           0        0.790792    0.032943    0.189895
     14          1           0        2.039178    2.165837    0.179185
     15          1           0       -1.411805    4.193322    1.696906
     16          1           0       -2.660190    2.060428    1.707616
     17          1           0       -0.154515   -1.582132    0.198003
     18          1           0       -1.402900   -3.715026    0.208713
     19          1           0       -4.853878   -1.687543    1.726447
     20         17           0       -3.912969    1.026128    1.926109
     21         17           0       -4.101123   -4.363223    0.975928
     22         17           0        1.286422    4.841517    0.929704
 ---------------------------------------------------------------------
                    Distance matrix (angstroms):
                    1          2          3          4          5
     1  C    0.000000
     2  C    1.401400   0.000000
     3  C    2.427296   1.401400   0.000000
     4  C    2.802800   2.427296   1.401400   0.000000
     5  C    2.427296   2.802800   2.427296   1.401400   0.000000
     6  C    1.401400   2.427296   2.802800   2.427296   1.401400
     7  C    1.540000   2.548270   3.838989   4.342800   3.838989
     8  C    2.548270   2.941400   4.342800   5.187469   4.975106
     9  C    3.838989   4.342800   5.744200   6.558176   6.235992
    10  C    4.342800   5.187469   6.558176   7.145600   6.558176
    11  C    3.838989   4.975106   6.235992   6.558176   5.744200
    12  C    2.548270   3.813607   4.975106   5.187469   4.342800
    13  H    2.146700   1.070000   2.146700   3.396345   3.872800
    14  H    3.396345   2.146700   1.070000   2.146700   3.396345
    15  H    3.396345   3.872800   3.396345   2.146700   1.070000
    16  H    2.146700   3.396345   3.872800   3.396345   2.146700
    17  H    2.736837   2.578650   3.918930   4.990735   5.074276
    18  H    4.693509   4.965039   6.347206   7.300676   7.118798
    19  H    4.693509   5.919617   7.118798   7.300676   6.347206
    20  Cl   3.057342   4.456874   5.254079   4.983028   3.783409
    21  Cl   6.102800   6.910901   8.294174   8.905600   8.294174
    22  Cl   4.562800   4.048303   2.743718   1.760000   2.743718
                    6          7          8          9         10
     6  C    0.000000
     7  C    2.548270   0.000000
     8  C    3.813607   1.401400   0.000000
     9  C    4.975106   2.427296   1.401400   0.000000
    10  C    5.187469   2.802800   2.427296   1.401400   0.000000
    11  C    4.342800   2.427296   2.802800   2.427296   1.401400
    12  C    2.941400   1.401400   2.427296   2.802800   2.427296
    13  H    3.396345   2.736837   2.578650   3.918930   4.990735
    14  H    3.872800   4.693509   4.965039   6.347206   7.300676
    15  H    2.146700   4.693509   5.919617   7.118798   7.300676
    16  H    1.070000   2.736837   4.127917   5.074276   4.990735
    17  H    4.127917   2.146700   1.070000   2.146700   3.396345
    18  H    5.919617   3.396345   2.146700   1.070000   2.146700
    19  H    4.965039   3.396345   3.872800   3.396345   2.146700
    20  Cl   2.563702   2.743718   4.048303   4.562800   4.048303
    21  Cl   6.910901   4.562800   4.048303   2.743718   1.760000
    22  Cl   4.048303   6.102800   6.910901   8.294174   8.905600
                   11         12         13         14         15
    11  C    0.000000
    12  C    1.401400   0.000000
    13  H    5.074276   4.127917   0.000000
    14  H    7.118798   5.919617   2.471400   0.000000
    15  H    6.347206   4.965039   4.942800   4.280590   0.000000
    16  H    3.918930   2.578650   4.280590   4.942800   2.471400
    17  H    3.872800   3.396345   1.871400   4.342800   6.097816
    18  H    3.396345   3.872800   4.342800   6.814200   8.047159
    19  H    1.070000   2.146700   6.097816   8.047159   6.814200
    20  Cl   2.743718   1.760000   5.111382   6.307038   4.042212
    21  Cl   2.743718   4.048303   6.623817   8.998151   8.998151
    22  Cl   8.294174   6.910901   4.890332   2.879094   2.879094
                   16         17         18         19         20
    16  H    0.000000
    17  H    4.671787   0.000000
    18  H    6.097816   2.471400   0.000000
    19  H    4.342800   4.942800   4.280590   0.000000
    20  Cl   1.639199   4.890332   5.632800   2.879094   0.000000
    21  Cl   6.623817   4.890332   2.879094   2.879094   5.475705
    22  Cl   4.890332   6.623817   8.998151   8.998151   6.525618
                   21         22
    21  Cl   0.000000
    22  Cl  10.665600   0.000000
 Stoichiometry    C12H7Cl3
 Framework group  C1[X(C12H7Cl3)]
 Deg. of freedom    60
 Full point group                 C1      NOp   1
 Largest Abelian subgroup         C1      NOp   1
 Largest concise Abelian subgroup C1      NOp   1
                         Standard orientation:                         
 ---------------------------------------------------------------------
 Center     Atomic      Atomic             Coordinates (Angstroms)
 Number     Number       Type             X           Y           Z
 ---------------------------------------------------------------------
      1          6           0       -0.846187   -0.326058    0.000002
      2          6           0       -1.569086   -1.526615    0.000000
      3          6           0       -2.970249   -1.500845   -0.000001
      4          6           0       -3.648513   -0.274517   -0.000001
      5          6           0       -2.925613    0.926041    0.000003
      6          6           0       -1.524450    0.900270    0.000005
      7          6           0        0.693553   -0.354377    0.000003
      8          6           0        1.371817   -1.580705    0.000003
      9          6           0        2.772980   -1.606475    0.000002
     10          6           0        3.495879   -0.405918    0.000001
     11          6           0        2.817615    0.820410    0.000000
     12          6           0        1.416452    0.846181    0.000001
     13          1           0       -1.051217   -2.462944   -0.000002
     14          1           0       -3.522199   -2.417497   -0.000003
     15          1           0       -3.443483    1.862370    0.000006
     16          1           0       -0.972501    1.816923    0.000007
     17          1           0        0.819867   -2.497357    0.000001
     18          1           0        3.290849   -2.542804    0.000002
     19          1           0        3.369565    1.737063   -0.000003
     20         17           0        0.564630    2.386310   -0.000001
     21         17           0        5.255581   -0.438283   -0.000003
     22         17           0       -5.408215   -0.242152   -0.000003
 ---------------------------------------------------------------------
 Rotational constants (GHZ):           1.2611838           0.1760697           0.1545004
 Standard basis: 6-311+G(d,p) (5D, 7F)
 There are   411 symmetry adapted cartesian basis functions of A   symmetry.
 There are   396 symmetry adapted basis functions of A   symmetry.
   396 basis functions,   647 primitive gaussians,   411 cartesian basis functions
    65 alpha electrons       65 beta electrons
       nuclear repulsion energy      1166.1452400981 Hartrees.
 NAtoms=   22 NActive=   22 NUniq=   22 SFac= 1.00D+00 NAtFMM=   60 NAOKFM=F Big=F
 Integral buffers will be    131072 words long.
 Raffenetti 2 integral format.
 Two-electron integral symmetry is turned on.
 One-electron integrals computed using PRISM.
 NBasis=   396 RedAO= T EigKep=  1.19D-06  NBF=   396
 NBsUse=   391 1.00D-06 EigRej=  8.50D-07 NBFU=   391
 ExpMin= 4.38D-02 ExpMax= 1.06D+05 ExpMxC= 3.62D+03 IAcc=3 IRadAn=         5 AccDes= 0.00D+00
 Harris functional with IExCor=  402 and IRadAn=       5 diagonalized for initial guess.
 HarFok:  IExCor=  402 AccDes= 0.00D+00 IRadAn=         5 IDoV= 1 UseB2=F ITyADJ=14
 ICtDFT=  3500011 ScaDFX=  1.000000  1.000000  1.000000  1.000000
 FoFCou: FMM=F IPFlag=           0 FMFlag=      100000 FMFlg1=           0
         NFxFlg=           0 DoJE=T BraDBF=F KetDBF=T FulRan=T
         wScrn=  0.000000 ICntrl=       500 IOpCl=  0 I1Cent=   200000004 NGrid=           0
         NMat0=    1 NMatS0=      1 NMatT0=    0 NMatD0=    1 NMtDS0=    0 NMtDT0=    0
 Petite list used in FoFCou.
 Requested convergence on RMS density matrix=1.00D-08 within  32 cycles.
 Requested convergence on MAX density matrix=1.00D-06.
 Requested convergence on             energy=1.00D-06.
 No special actions if energy rises.
 SCF Done:  E(RB3LYP) =  -1842.22340176     A.U. after   16 cycles
            NFock= 16  Conv=0.33D-08     -V/T= 2.0028
 QCSCF skips out because SCF is already converged.

 **********************************************************************

            Population analysis using the SCF Density.

 **********************************************************************

 Orbital symmetries:
       Occupied  (A) (A) (A) (A) (A) (A) (A) (A) (A) (A) (A) (A)
                 (A) (A) (A) (A) (A) (A) (A) (A) (A) (A) (A) (A)
                 (A) (A) (A) (A) (A) (A) (A) (A) (A) (A) (A) (A)
                 (A) (A) (A) (A) (A) (A) (A) (A) (A) (A) (A) (A)
                 (A) (A) (A) (A) (A) (A) (A) (A) (A) (A) (A) (A)
                 (A) (A) (A) (A) (A)
       Virtual   (A) (A) (A) (A) (A) (A) (A) (A) (A) (A) (A) (A)
                 (A) (A) (A) (A) (A) (A) (A) (A) (A) (A) (A) (A)
                 (A) (A) (A) (A) (A) (A) (A) (A) (A) (A) (A) (A)
                 (A) (A) (A) (A) (A) (A) (A) (A) (A) (A) (A) (A)
                 (A) (A) (A) (A) (A) (A) (A) (A) (A) (A) (A) (A)
                 (A) (A) (A) (A) (A) (A) (A) (A) (A) (A) (A) (A)
                 (A) (A) (A) (A) (A) (A) (A) (A) (A) (A) (A) (A)
                 (A) (A) (A) (A) (A) (A) (A) (A) (A) (A) (A) (A)
                 (A) (A) (A) (A) (A) (A) (A) (A) (A) (A) (A) (A)
                 (A) (A) (A) (A) (A) (A) (A) (A) (A) (A) (A) (A)
                 (A) (A) (A) (A) (A) (A) (A) (A) (A) (A) (A) (A)
                 (A) (A) (A) (A) (A) (A) (A) (A) (A) (A) (A) (A)
                 (A) (A) (A) (A) (A) (A) (A) (A) (A) (A) (A) (A)
                 (A) (A) (A) (A) (A) (A) (A) (A) (A) (A) (A) (A)
                 (A) (A) (A) (A) (A) (A) (A) (A) (A) (A) (A) (A)
                 (A) (A) (A) (A) (A) (A) (A) (A) (A) (A) (A) (A)
                 (A) (A) (A) (A) (A) (A) (A) (A) (A) (A) (A) (A)
                 (A) (A) (A) (A) (A) (A) (A) (A) (A) (A) (A) (A)
                 (A) (A) (A) (A) (A) (A) (A) (A) (A) (A) (A) (A)
                 (A) (A) (A) (A) (A) (A) (A) (A) (A) (A) (A) (A)
                 (A) (A) (A) (A) (A) (A) (A) (A) (A) (A) (A) (A)
                 (A) (A) (A) (A) (A) (A) (A) (A) (A) (A) (A) (A)
                 (A) (A) (A) (A) (A) (A) (A) (A) (A) (A) (A) (A)
                 (A) (A) (A) (A) (A) (A) (A) (A) (A) (A) (A) (A)
                 (A) (A) (A) (A) (A) (A) (A) (A) (A) (A) (A) (A)
                 (A) (A) (A) (A) (A) (A) (A) (A) (A) (A) (A) (A)
                 (A) (A) (A) (A) (A) (A) (A) (A) (A) (A) (A) (A)
                 (A) (A)
 The electronic state is 1-A.
 Alpha  occ. eigenvalues -- -101.57655-101.57148-101.55866 -10.26816 -10.26388
 Alpha  occ. eigenvalues --  -10.24757 -10.22519 -10.21691 -10.21126 -10.21071
 Alpha  occ. eigenvalues --  -10.20944 -10.19815 -10.19763 -10.19290 -10.17324
 Alpha  occ. eigenvalues --   -9.49443  -9.48575  -9.47310  -7.25845  -7.25052
 Alpha  occ. eigenvalues --   -7.24895  -7.24879  -7.24052  -7.24021  -7.23767
 Alpha  occ. eigenvalues --   -7.22798  -7.22761  -0.93414  -0.90175  -0.89564
 Alpha  occ. eigenvalues --   -0.85758  -0.84378  -0.78349  -0.77192  -0.76712
 Alpha  occ. eigenvalues --   -0.72887  -0.65863  -0.63166  -0.62802  -0.60606
 Alpha  occ. eigenvalues --   -0.55186  -0.52203  -0.51543  -0.49919  -0.48768
 Alpha  occ. eigenvalues --   -0.47159  -0.46070  -0.45187  -0.44928  -0.43742
 Alpha  occ. eigenvalues --   -0.41223  -0.40458  -0.40146  -0.38974  -0.38603
 Alpha  occ. eigenvalues --   -0.37141  -0.35625  -0.33752  -0.33439  -0.32393
 Alpha  occ. eigenvalues --   -0.28820  -0.28547  -0.28074  -0.27302  -0.24134
 Alpha virt. eigenvalues --   -0.06676  -0.05364  -0.03051  -0.02538  -0.00714
 Alpha virt. eigenvalues --   -0.00711   0.00619   0.00819   0.01205   0.01683
 Alpha virt. eigenvalues --    0.03065   0.03473   0.04105   0.04339   0.05561
 Alpha virt. eigenvalues --    0.05968   0.06200   0.06395   0.06443   0.07405
 Alpha virt. eigenvalues --    0.08106   0.08382   0.09259   0.09337   0.10060
 Alpha virt. eigenvalues --    0.10344   0.10524   0.10551   0.11530   0.11978
 Alpha virt. eigenvalues --    0.12896   0.13325   0.13594   0.13719   0.14113
 Alpha virt. eigenvalues --    0.14163   0.14257   0.14947   0.15133   0.15932
 Alpha virt. eigenvalues --    0.17333   0.17543   0.17937   0.18050   0.18376
 Alpha virt. eigenvalues --    0.18748   0.18984   0.19289   0.19832   0.19881
 Alpha virt. eigenvalues --    0.19931   0.20437   0.20803   0.21244   0.21446
 Alpha virt. eigenvalues --    0.22016   0.22457   0.22821   0.24237   0.24311
 Alpha virt. eigenvalues --    0.24939   0.25090   0.25747   0.26538   0.26892
 Alpha virt. eigenvalues --    0.27182   0.27381   0.28229   0.28593   0.29253
 Alpha virt. eigenvalues --    0.30205   0.31950   0.32454   0.32907   0.33435
 Alpha virt. eigenvalues --    0.34009   0.35544   0.36261   0.38351   0.38786
 Alpha virt. eigenvalues --    0.40045   0.42315   0.42618   0.43929   0.44367
 Alpha virt. eigenvalues --    0.44908   0.45668   0.46314   0.46634   0.47445
 Alpha virt. eigenvalues --    0.49734   0.50175   0.50761   0.50980   0.51526
 Alpha virt. eigenvalues --    0.52896   0.54103   0.54105   0.55267   0.55648
 Alpha virt. eigenvalues --    0.56621   0.57383   0.57435   0.58002   0.59595
 Alpha virt. eigenvalues --    0.59650   0.61062   0.61124   0.61870   0.63467
 Alpha virt. eigenvalues --    0.63647   0.65347   0.65799   0.66363   0.67059
 Alpha virt. eigenvalues --    0.67406   0.68337   0.68765   0.68878   0.69532
 Alpha virt. eigenvalues --    0.72205   0.75178   0.75970   0.79350   0.80704
 Alpha virt. eigenvalues --    0.80945   0.81678   0.83061   0.83458   0.83570
 Alpha virt. eigenvalues --    0.83760   0.83831   0.84682   0.85020   0.85331
 Alpha virt. eigenvalues --    0.86018   0.86545   0.86554   0.88096   0.88969
 Alpha virt. eigenvalues --    0.89467   0.90737   0.90928   0.92671   0.92787
 Alpha virt. eigenvalues --    0.93835   0.94074   0.94547   0.94906   0.95981
 Alpha virt. eigenvalues --    0.97016   0.98520   0.98759   0.99978   1.00100
 Alpha virt. eigenvalues --    1.02563   1.03695   1.06341   1.06487   1.06844
 Alpha virt. eigenvalues --    1.07736   1.08720   1.10223   1.11105   1.12676
 Alpha virt. eigenvalues --    1.13050   1.18391   1.19815   1.21951   1.22749
 Alpha virt. eigenvalues --    1.24360   1.26673   1.28247   1.29695   1.30865
 Alpha virt. eigenvalues --    1.33309   1.34406   1.38086   1.44501   1.45396
 Alpha virt. eigenvalues --    1.47168   1.50818   1.51894   1.52415   1.53731
 Alpha virt. eigenvalues --    1.54795   1.55123   1.55992   1.57989   1.59480
 Alpha virt. eigenvalues --    1.60243   1.61820   1.63815   1.65625   1.68216
 Alpha virt. eigenvalues --    1.68888   1.71614   1.72104   1.72625   1.75960
 Alpha virt. eigenvalues --    1.77030   1.83273   1.83734   1.84855   1.85190
 Alpha virt. eigenvalues --    1.87941   1.89333   1.90682   1.92670   1.93405
 Alpha virt. eigenvalues --    1.94484   1.95215   1.96648   1.97632   1.97992
 Alpha virt. eigenvalues --    1.98229   1.99702   2.00461   2.05989   2.06575
 Alpha virt. eigenvalues --    2.06912   2.08391   2.10230   2.14076   2.20473
 Alpha virt. eigenvalues --    2.22324   2.24117   2.25988   2.26429   2.26791
 Alpha virt. eigenvalues --    2.27877   2.27887   2.34516   2.34653   2.35878
 Alpha virt. eigenvalues --    2.38010   2.40919   2.42315   2.43059   2.48955
 Alpha virt. eigenvalues --    2.50171   2.52179   2.54516   2.55773   2.56485
 Alpha virt. eigenvalues --    2.60224   2.61332   2.63380   2.64177   2.64316
 Alpha virt. eigenvalues --    2.65792   2.68728   2.70656   2.71223   2.73271
 Alpha virt. eigenvalues --    2.73505   2.73973   2.74516   2.75535   2.77546
 Alpha virt. eigenvalues --    2.79072   2.80469   2.81771   2.84091   2.84685
 Alpha virt. eigenvalues --    2.85539   2.91537   2.93265   2.93556   2.96483
 Alpha virt. eigenvalues --    3.04203   3.05297   3.07049   3.09734   3.14235
 Alpha virt. eigenvalues --    3.17389   3.19287   3.21550   3.23857   3.32314
 Alpha virt. eigenvalues --    3.36566   3.38921   3.42404   3.50075   3.52782
 Alpha virt. eigenvalues --    3.56858   3.61092   3.66420   3.77895   3.79939
 Alpha virt. eigenvalues --    3.85433   4.01750   4.06446   4.12986   4.17350
 Alpha virt. eigenvalues --    4.20925   4.46500   4.79651   4.83575   9.76340
 Alpha virt. eigenvalues --    9.77651   9.86423  23.44249  23.61021  23.82579
 Alpha virt. eigenvalues --   23.86842  23.90561  23.96221  23.98164  24.02463
 Alpha virt. eigenvalues --   24.02773  24.07564  24.10788  24.15020  25.81446
 Alpha virt. eigenvalues --   25.82645  25.83834  26.09793  26.13773  26.56703
 Alpha virt. eigenvalues --   26.60507  26.67503  26.78784 215.75407 215.76712
 Alpha virt. eigenvalues --  215.88632
          Condensed to atoms (all electrons):
               1          2          3          4          5          6
     1  C   13.356548  -0.065648   0.397670  -2.368469  -3.100468  -0.138058
     2  C   -0.065648  17.033871   0.299519  -0.301890  -2.072522  -4.878301
     3  C    0.397670   0.299519  13.314753  -0.302944  -3.767511  -1.828572
     4  C   -2.368469  -0.301890  -0.302944  12.210749   1.378428  -2.445454
     5  C   -3.100468  -2.072522  -3.767511   1.378428  11.300826   2.337001
     6  C   -0.138058  -4.878301  -1.828572  -2.445454   2.337001  13.524137
     7  C    3.972253  -2.547673  -0.291876  -0.950802  -0.945159   0.432196
     8  C   -0.561593   5.771775  -0.522696   0.028539  -1.015389  -4.045602
     9  C   -0.997681  -2.356176  -0.086217  -0.286312   0.064397   0.913839
    10  C   -1.103443   0.238554  -0.211737  -0.039651   0.030049  -0.347672
    11  C   -3.451794  -1.929689  -0.239926  -0.096767   1.022862   1.895878
    12  C   -0.735867  -3.354940  -0.580347  -0.441787   0.904118   2.135983
    13  H    0.070694   0.286203  -0.118977  -0.042168  -0.023831   0.001761
    14  H    0.024449  -0.045158   0.275744   0.051813   0.037741   0.002283
    15  H    0.080149  -0.017478   0.057153   0.005049   0.270756  -0.047192
    16  H   -0.350035  -0.044842  -0.073744   0.006802   0.139118   0.559233
    17  H    0.038061   0.064729   0.028346   0.003386  -0.000013   0.004875
    18  H    0.004222   0.018449   0.000126   0.000257  -0.000313  -0.003553
    19  H    0.015564   0.002915   0.000469  -0.000103  -0.001331  -0.001316
    20  Cl   1.156261   0.465632   0.110644  -0.094530  -0.750067  -1.285835
    21  Cl  -0.058696  -0.023478  -0.003864  -0.001393  -0.001361  -0.026978
    22  Cl  -0.236949   0.078254   0.099106  -1.068844   0.401232   0.037769
               7          8          9         10         11         12
     1  C    3.972253  -0.561593  -0.997681  -1.103443  -3.451794  -0.735867
     2  C   -2.547673   5.771775  -2.356176   0.238554  -1.929689  -3.354940
     3  C   -0.291876  -0.522696  -0.086217  -0.211737  -0.239926  -0.580347
     4  C   -0.950802   0.028539  -0.286312  -0.039651  -0.096767  -0.441787
     5  C   -0.945159  -1.015389   0.064397   0.030049   1.022862   0.904118
     6  C    0.432196  -4.045602   0.913839  -0.347672   1.895878   2.135983
     7  C   11.755103  -3.202066   1.519070  -3.025772  -2.567091   1.650433
     8  C   -3.202066  18.178284  -4.165453   0.648152  -3.520878  -2.094623
     9  C    1.519070  -4.165453  18.017797  -1.469043  -1.998883  -2.997400
    10  C   -3.025772   0.648152  -1.469043  15.337063   1.601877  -5.015951
    11  C   -2.567091  -3.520878  -1.998883   1.601877  14.912176   0.639175
    12  C    1.650433  -2.094623  -2.997400  -5.015951   0.639175  17.305770
    13  H    0.074944   0.002766   0.032933  -0.000352   0.005383   0.029920
    14  H    0.001787   0.008154  -0.001514   0.000272  -0.000093   0.001351
    15  H    0.015873   0.002381   0.000857  -0.000566  -0.003010  -0.003296
    16  H   -0.119343  -0.025945  -0.007713   0.044989   0.183095   0.148811
    17  H    0.044271   0.362421  -0.120167  -0.024553  -0.036139  -0.041119
    18  H    0.003787   0.012283   0.209634   0.079057   0.016453   0.015582
    19  H    0.082251  -0.004649   0.026848  -0.004834   0.302032  -0.045057
    20  Cl   0.361685   0.574745   0.009655  -0.371958  -0.694020  -1.000538
    21  Cl  -0.230613   0.075083   0.204661  -0.999780   0.290527  -0.036778
    22  Cl  -0.069346  -0.018243  -0.005017  -0.000903  -0.003347  -0.035794
              13         14         15         16         17         18
     1  C    0.070694   0.024449   0.080149  -0.350035   0.038061   0.004222
     2  C    0.286203  -0.045158  -0.017478  -0.044842   0.064729   0.018449
     3  C   -0.118977   0.275744   0.057153  -0.073744   0.028346   0.000126
     4  C   -0.042168   0.051813   0.005049   0.006802   0.003386   0.000257
     5  C   -0.023831   0.037741   0.270756   0.139118  -0.000013  -0.000313
     6  C    0.001761   0.002283  -0.047192   0.559233   0.004875  -0.003553
     7  C    0.074944   0.001787   0.015873  -0.119343   0.044271   0.003787
     8  C    0.002766   0.008154   0.002381  -0.025945   0.362421   0.012283
     9  C    0.032933  -0.001514   0.000857  -0.007713  -0.120167   0.209634
    10  C   -0.000352   0.000272  -0.000566   0.044989  -0.024553   0.079057
    11  C    0.005383  -0.000093  -0.003010   0.183095  -0.036139   0.016453
    12  C    0.029920   0.001351  -0.003296   0.148811  -0.041119   0.015582
    13  H    0.567739  -0.007848   0.000101  -0.000247   0.001043   0.000036
    14  H   -0.007848   0.518232  -0.000375   0.000120   0.000026   0.000000
    15  H    0.000101  -0.000375   0.528627  -0.014743   0.000000   0.000000
    16  H   -0.000247   0.000120  -0.014743   0.706363  -0.000094  -0.000002
    17  H    0.001043   0.000026   0.000000  -0.000094   0.549998  -0.007566
    18  H    0.000036   0.000000   0.000000  -0.000002  -0.007566   0.513485
    19  H    0.000000   0.000000   0.000000   0.000027   0.000071  -0.000292
    20  Cl  -0.000061  -0.000139   0.002345  -0.282410   0.000117   0.000914
    21  Cl   0.000041  -0.000000  -0.000001   0.000229  -0.000268  -0.013178
    22  Cl  -0.000566  -0.011618  -0.014182   0.000680   0.000015   0.000000
              19         20         21         22
     1  C    0.015564   1.156261  -0.058696  -0.236949
     2  C    0.002915   0.465632  -0.023478   0.078254
     3  C    0.000469   0.110644  -0.003864   0.099106
     4  C   -0.000103  -0.094530  -0.001393  -1.068844
     5  C   -0.001331  -0.750067  -0.001361   0.401232
     6  C   -0.001316  -1.285835  -0.026978   0.037769
     7  C    0.082251   0.361685  -0.230613  -0.069346
     8  C   -0.004649   0.574745   0.075083  -0.018243
     9  C    0.026848   0.009655   0.204661  -0.005017
    10  C   -0.004834  -0.371958  -0.999780  -0.000903
    11  C    0.302032  -0.694020   0.290527  -0.003347
    12  C   -0.045057  -1.000538  -0.036778  -0.035794
    13  H    0.000000  -0.000061   0.000041  -0.000566
    14  H    0.000000  -0.000139  -0.000000  -0.011618
    15  H    0.000000   0.002345  -0.000001  -0.014182
    16  H    0.000027  -0.282410   0.000229   0.000680
    17  H    0.000071   0.000117  -0.000268   0.000015
    18  H   -0.000292   0.000914  -0.013178   0.000000
    19  H    0.494475  -0.019430  -0.010606  -0.000000
    20  Cl  -0.019430  18.179546  -0.011225  -0.000703
    21  Cl  -0.010606  -0.011225  17.415498  -0.000003
    22  Cl  -0.000000  -0.000703  -0.000003  17.436598
 Mulliken charges:
               1
     1  C    0.052829
     2  C   -0.622105
     3  C   -0.555119
     4  C    0.756091
     5  C   -0.208561
     6  C   -0.796423
     7  C    0.036090
     8  C   -0.487446
     9  C   -0.508115
    10  C    0.636203
    11  C   -0.327820
    12  C   -0.447645
    13  H    0.120485
    14  H    0.144771
    15  H    0.137552
    16  H    0.129651
    17  H    0.132560
    18  H    0.150619
    19  H    0.162968
    20  Cl   0.649370
    21  Cl   0.432183
    22  Cl   0.411860
 Sum of Mulliken charges =  -0.00000
 Mulliken charges with hydrogens summed into heavy atoms:
               1
     1  C    0.052829
     2  C   -0.501620
     3  C   -0.410347
     4  C    0.756091
     5  C   -0.071009
     6  C   -0.666772
     7  C    0.036090
     8  C   -0.354886
     9  C   -0.357496
    10  C    0.636203
    11  C   -0.164852
    12  C   -0.447645
    20  Cl   0.649370
    21  Cl   0.432183
    22  Cl   0.411860
 Electronic spatial extent (au):  <R**2>=           6125.9512
 Charge=             -0.0000 electrons
 Dipole moment (field-independent basis, Debye):
    X=              1.0683    Y=             -0.9848    Z=              0.0000  Tot=              1.4530
 Quadrupole moment (field-independent basis, Debye-Ang):
   XX=           -121.3605   YY=            -97.2324   ZZ=           -112.6359
   XY=             -1.1580   XZ=             -0.0000   YZ=              0.0000
 Traceless Quadrupole moment (field-independent basis, Debye-Ang):
   XX=            -10.9509   YY=             13.1772   ZZ=             -2.2263
   XY=             -1.1580   XZ=             -0.0000   YZ=              0.0000
 Octapole moment (field-independent basis, Debye-Ang**2):
  XXX=             30.5281  YYY=             -5.9708  ZZZ=             -0.0001  XYY=             -3.6045
  XXY=              9.2032  XXZ=             -0.0000  XZZ=              2.3858  YZZ=              5.6526
  YYZ=             -0.0000  XYZ=             -0.0001
 Hexadecapole moment (field-independent basis, Debye-Ang**3):
 XXXX=          -7265.7434 YYYY=          -1045.5309 ZZZZ=           -132.4965 XXXY=              7.7436
 XXXZ=             -0.0003 YYYX=            -21.6224 YYYZ=              0.0001 ZZZX=             -0.0000
 ZZZY=              0.0000 XXYY=          -1272.5111 XXZZ=          -1220.2532 YYZZ=           -223.2444
 XXYZ=              0.0000 YYXZ=             -0.0000 ZZXY=              0.7942
 N-N= 1.166145240098D+03 E-N=-6.684120345838D+03  KE= 1.837141011049D+03
 Calling FoFJK, ICntrl=      2127 FMM=F ISym2X=0 I1Cent= 0 IOpClX= 0 NMat=1 NMatS=1 NMatT=0.
 ***** Axes restored to original set *****
 -------------------------------------------------------------------
 Center     Atomic                   Forces (Hartrees/Bohr)
 Number     Number              X              Y              Z
 -------------------------------------------------------------------
      1        6          -0.014519349   -0.027509841   -0.000383223
      2        6          -0.004102188    0.022049712    0.005492757
      3        6          -0.010540058   -0.002825771    0.002941886
      4        6          -0.008144524   -0.008911802    0.001009299
      5        6           0.013132944   -0.011618425   -0.006508698
      6        6           0.048282593    0.030052241   -0.010263043
      7        6           0.020678992    0.040143268    0.000726598
      8        6          -0.027805444   -0.011019908    0.007091130
      9        6          -0.001942599    0.010565372    0.002624214
     10        6           0.006650623    0.012359844    0.000130258
     11        6           0.004441260    0.000839008   -0.001305482
     12        6           0.007527306   -0.018779078   -0.006006917
     13        1           0.007138047   -0.003277240   -0.002967222
     14        1           0.008704324    0.000697746   -0.002736630
     15        1          -0.003719100    0.008244829    0.002773763
     16        1           0.041517400    0.028312558   -0.008361133
     17        1           0.005524102   -0.002660722   -0.002319781
     18        1           0.003441625   -0.007948622   -0.002626656
     19        1          -0.008297404    0.000001806    0.002733906
     20       17          -0.089332510   -0.061164190    0.017944402
     21       17           0.001801429    0.004458635    0.000243821
     22       17          -0.000437469   -0.002009419   -0.000233249
 -------------------------------------------------------------------
 Cartesian Forces:  Max     0.089332510 RMS     0.019206715

 GradGradGradGradGradGradGradGradGradGradGradGradGradGradGradGradGradGrad
 Berny optimization.
 FormGI is forming the generalized inverse of G from B-inverse, IUseBI=4.
 Internal  Forces:  Max     0.280737755 RMS     0.051203147
 Search for a local minimum.
 Step number   1 out of a maximum of  121
 All quantities printed in internal units (Hartrees-Bohrs-Radians)
 Mixed Optimization -- RFO/linear search
 Second derivative matrix not updated -- first step.
 ITU=  0
     Eigenvalues ---    0.00237   0.01506   0.01506   0.02070   0.02070
     Eigenvalues ---    0.02070   0.02070   0.02070   0.02070   0.02070
     Eigenvalues ---    0.02070   0.02070   0.02070   0.02070   0.02070
     Eigenvalues ---    0.02070   0.02070   0.02070   0.02070   0.16000
     Eigenvalues ---    0.16000   0.16000   0.16000   0.16000   0.16000
     Eigenvalues ---    0.16000   0.22000   0.22375   0.22981   0.23491
     Eigenvalues ---    0.24000   0.24610   0.25000   0.25000   0.25000
     Eigenvalues ---    0.25000   0.25000   0.28519   0.29539   0.29539
     Eigenvalues ---    0.29539   0.37230   0.37230   0.37230   0.37230
     Eigenvalues ---    0.37230   0.37230   0.37230   0.41268   0.41393
     Eigenvalues ---    0.41640   0.41697   0.45389   0.45389   0.45389
     Eigenvalues ---    0.45389   0.45389   0.45389   0.45389   0.45389
 RFO step:  Lambda=-4.24423440D-01 EMin= 2.36824177D-03
 Linear search not attempted -- first point.
 Maximum step size (   0.300) exceeded in Quadratic search.
    -- Step size scaled by   0.381
 Iteration  1 RMS(Cart)=  0.19704008 RMS(Int)=  0.00990295
 Iteration  2 RMS(Cart)=  0.03512773 RMS(Int)=  0.00029193
 Iteration  3 RMS(Cart)=  0.00054655 RMS(Int)=  0.00004809
 Iteration  4 RMS(Cart)=  0.00000018 RMS(Int)=  0.00004809
 Variable       Old X    -DE/DX   Delta X   Delta X   Delta X     New X
                                 (Linear)    (Quad)   (Total)
    R1        2.64826   0.01759   0.00000   0.00790   0.00795   2.65621
    R2        2.64826   0.01775   0.00000   0.00807   0.00811   2.65638
    R3        2.91018   0.06779   0.00000   0.03636   0.03636   2.94654
    R4        2.64826  -0.01346   0.00000  -0.00593  -0.00592   2.64234
    R5        2.02201   0.00684   0.00000   0.00327   0.00327   2.02528
    R6        2.64826  -0.02763   0.00000  -0.01235  -0.01239   2.63587
    R7        2.02201   0.00914   0.00000   0.00436   0.00436   2.02637
    R8        2.64826  -0.02557   0.00000  -0.01136  -0.01141   2.63685
    R9        3.32592  -0.00195   0.00000  -0.00103  -0.00103   3.32488
   R10        2.64826  -0.00121   0.00000  -0.00043  -0.00043   2.64783
   R11        2.02201   0.00944   0.00000   0.00451   0.00451   2.02652
   R12        2.02201  -0.04266   0.00000  -0.02038  -0.02038   2.00163
   R13        2.64826   0.02030   0.00000   0.00947   0.00957   2.65784
   R14        2.64826   0.12107   0.00000   0.05369   0.05377   2.70203
   R15        2.64826  -0.02340   0.00000  -0.01070  -0.01067   2.63759
   R16        2.02201   0.00591   0.00000   0.00282   0.00282   2.02483
   R17        2.64826  -0.04209   0.00000  -0.01946  -0.01954   2.62872
   R18        2.02201   0.00902   0.00000   0.00431   0.00431   2.02632
   R19        2.64826  -0.03221   0.00000  -0.01463  -0.01473   2.63353
   R20        3.32592  -0.00476   0.00000  -0.00252  -0.00252   3.32340
   R21        2.64826   0.00283   0.00000   0.00178   0.00175   2.65002
   R22        2.02201   0.00873   0.00000   0.00417   0.00417   2.02618
   R23        3.32592  -0.00620   0.00000  -0.00328  -0.00328   3.32264
    A1        2.09440  -0.06301   0.00000  -0.03498  -0.03489   2.05951
    A2        2.09440  -0.13137   0.00000  -0.07442  -0.07447   2.01993
    A3        2.09440   0.19438   0.00000   0.10940   0.10936   2.20375
    A4        2.09440   0.03963   0.00000   0.02335   0.02340   2.11780
    A5        2.09440  -0.01490   0.00000  -0.00847  -0.00850   2.08590
    A6        2.09440  -0.02473   0.00000  -0.01488  -0.01490   2.07949
    A7        2.09440  -0.00122   0.00000  -0.00169  -0.00173   2.09266
    A8        2.09440   0.00112   0.00000   0.00118   0.00120   2.09560
    A9        2.09440   0.00009   0.00000   0.00051   0.00053   2.09492
   A10        2.09440  -0.00799   0.00000  -0.00569  -0.00578   2.08861
   A11        2.09440   0.00286   0.00000   0.00221   0.00225   2.09665
   A12        2.09440   0.00513   0.00000   0.00349   0.00353   2.09793
   A13        2.09440   0.01066   0.00000   0.00572   0.00566   2.10006
   A14        2.09440  -0.00592   0.00000  -0.00324  -0.00322   2.09118
   A15        2.09440  -0.00474   0.00000  -0.00248  -0.00245   2.09195
   A16        2.09440   0.02193   0.00000   0.01329   0.01333   2.10773
   A17        2.09440   0.01718   0.00000   0.01168   0.01166   2.10606
   A18        2.09440  -0.03911   0.00000  -0.02498  -0.02500   2.06940
   A19        2.09440  -0.20049   0.00000  -0.11421  -0.11430   1.98009
   A20        2.09440   0.28074   0.00000   0.15736   0.15726   2.25165
   A21        2.09440  -0.08025   0.00000  -0.04315  -0.04296   2.05144
   A22        2.09440   0.06073   0.00000   0.03562   0.03576   2.13015
   A23        2.09440  -0.02750   0.00000  -0.01595  -0.01601   2.07838
   A24        2.09440  -0.03323   0.00000  -0.01967  -0.01974   2.07465
   A25        2.09440  -0.00186   0.00000  -0.00398  -0.00404   2.09036
   A26        2.09440   0.00163   0.00000   0.00245   0.00247   2.09687
   A27        2.09440   0.00023   0.00000   0.00154   0.00156   2.09596
   A28        2.09440  -0.00191   0.00000  -0.00399  -0.00418   2.09022
   A29        2.09440   0.00220   0.00000   0.00269   0.00279   2.09718
   A30        2.09440  -0.00028   0.00000   0.00129   0.00139   2.09578
   A31        2.09440   0.03513   0.00000   0.02019   0.02005   2.11445
   A32        2.09440  -0.01737   0.00000  -0.00997  -0.00990   2.08450
   A33        2.09440  -0.01776   0.00000  -0.01022  -0.01015   2.08424
   A34        2.09440  -0.01183   0.00000  -0.00469  -0.00464   2.08976
   A35        2.09440   0.18812   0.00000   0.10517   0.10514   2.19954
   A36        2.09440  -0.17629   0.00000  -0.10048  -0.10050   1.99389
    D1        0.00000   0.00000   0.00000   0.00000   0.00000   0.00000
    D2        3.14159   0.00000   0.00000   0.00000   0.00000   3.14159
    D3       -3.14159   0.00000   0.00000  -0.00000  -0.00000  -3.14159
    D4       -0.00000  -0.00000   0.00000  -0.00000  -0.00000  -0.00000
    D5       -0.00000  -0.00000   0.00000  -0.00000  -0.00000  -0.00000
    D6        3.14159  -0.00000   0.00000  -0.00000  -0.00000   3.14159
    D7        3.14159   0.00000   0.00000   0.00000   0.00000   3.14159
    D8        0.00000  -0.00000   0.00000  -0.00000  -0.00000   0.00000
    D9       -0.00000  -0.00000   0.00000  -0.00000  -0.00000  -0.00000
   D10        3.14159  -0.00000   0.00000  -0.00000  -0.00000   3.14159
   D11        3.14159  -0.00000   0.00000  -0.00000  -0.00000   3.14159
   D12       -0.00000  -0.00000   0.00000  -0.00000  -0.00000  -0.00000
   D13        0.00000  -0.00000   0.00000  -0.00000  -0.00000   0.00000
   D14        3.14159  -0.00000   0.00000  -0.00000  -0.00000   3.14159
   D15       -3.14159  -0.00000   0.00000  -0.00000  -0.00000  -3.14159
   D16        0.00000  -0.00000   0.00000  -0.00000  -0.00000   0.00000
   D17       -0.00000   0.00000   0.00000   0.00000   0.00000  -0.00000
   D18        3.14159   0.00000   0.00000   0.00000   0.00000   3.14159
   D19        3.14159  -0.00000   0.00000  -0.00000  -0.00000   3.14159
   D20        0.00000  -0.00000   0.00000  -0.00000  -0.00000   0.00000
   D21        0.00000   0.00000   0.00000   0.00000   0.00000   0.00000
   D22       -3.14159   0.00000   0.00000   0.00000   0.00000  -3.14159
   D23       -3.14159  -0.00000   0.00000  -0.00000  -0.00000  -3.14159
   D24        0.00000   0.00000   0.00000   0.00000   0.00000   0.00000
   D25       -0.00000   0.00000   0.00000   0.00000   0.00000  -0.00000
   D26        3.14159   0.00000   0.00000   0.00000   0.00000   3.14159
   D27        3.14159   0.00000   0.00000   0.00000   0.00000   3.14159
   D28       -0.00000   0.00000   0.00000   0.00000   0.00000  -0.00000
   D29        3.14159   0.00000   0.00000   0.00000   0.00000   3.14159
   D30        0.00000   0.00000   0.00000   0.00000   0.00000   0.00000
   D31        0.00000   0.00000   0.00000   0.00000   0.00000   0.00000
   D32       -3.14159  -0.00000   0.00000  -0.00000  -0.00000  -3.14159
   D33       -3.14159   0.00000   0.00000   0.00000   0.00000  -3.14159
   D34        0.00000  -0.00000   0.00000  -0.00000  -0.00000   0.00000
   D35       -0.00000  -0.00000   0.00000  -0.00000  -0.00000  -0.00000
   D36        3.14159  -0.00000   0.00000  -0.00000  -0.00000   3.14159
   D37       -0.00000   0.00000   0.00000  -0.00000  -0.00000  -0.00000
   D38        3.14159  -0.00000   0.00000  -0.00000  -0.00000   3.14159
   D39        3.14159   0.00000   0.00000   0.00000   0.00000   3.14159
   D40       -0.00000   0.00000   0.00000   0.00000   0.00000  -0.00000
   D41       -0.00000  -0.00000   0.00000  -0.00000  -0.00000  -0.00000
   D42       -3.14159  -0.00000   0.00000  -0.00000  -0.00000  -3.14159
   D43        3.14159   0.00000   0.00000   0.00000   0.00000   3.14159
   D44        0.00000  -0.00000   0.00000  -0.00000  -0.00000   0.00000
   D45        0.00000   0.00000   0.00000   0.00000   0.00000   0.00000
   D46       -3.14159   0.00000   0.00000   0.00000   0.00000  -3.14159
   D47        3.14159   0.00000   0.00000   0.00000   0.00000   3.14159
   D48        0.00000   0.00000   0.00000   0.00000   0.00000   0.00000
   D49        0.00000   0.00000   0.00000   0.00000   0.00000   0.00000
   D50       -3.14159   0.00000   0.00000   0.00000   0.00000  -3.14159
   D51        3.14159   0.00000   0.00000   0.00000   0.00000   3.14159
   D52       -0.00000   0.00000   0.00000   0.00000   0.00000  -0.00000
         Item               Value     Threshold  Converged?
 Maximum Force            0.280738     0.000450     NO 
 RMS     Force            0.051203     0.000300     NO 
 Maximum Displacement     0.979930     0.001800     NO 
 RMS     Displacement     0.227429     0.001200     NO 
 Predicted change in Energy=-1.498881D-01
 GradGradGradGradGradGradGradGradGradGradGradGradGradGradGradGradGradGrad

                          Input orientation:                          
 ---------------------------------------------------------------------
 Center     Atomic      Atomic             Coordinates (Angstroms)
 Number     Number       Type             X           Y           Z
 ---------------------------------------------------------------------
      1          6           0       -1.149699    1.010336    1.012762
      2          6           0        0.175461    0.904168    0.556242
      3          6           0        1.013568    2.021456    0.489961
      4          6           0        0.536993    3.272391    0.881909
      5          6           0       -0.775514    3.399532    1.338196
      6          6           0       -1.613445    2.278435    1.403704
      7          6           0       -1.967255   -0.317231    1.032781
      8          6           0       -1.236445   -1.431472    0.582746
      9          6           0       -1.794413   -2.709613    0.526526
     10          6           0       -3.112944   -2.905715    0.924096
     11          6           0       -3.867383   -1.824514    1.375711
     12          6           0       -3.321160   -0.534445    1.438041
     13          1           0        0.554141   -0.051176    0.252063
     14          1           0        2.021219    1.917120    0.138391
     15          1           0       -1.144359    4.360159    1.640127
     16          1           0       -2.604666    2.406733    1.754361
     17          1           0       -0.219567   -1.296835    0.273016
     18          1           0       -1.209119   -3.537779    0.178159
     19          1           0       -4.883169   -1.981645    1.680862
     20         17           0       -4.431526    0.691630    2.034130
     21         17           0       -3.826334   -4.511815    0.857490
     22         17           0        1.586407    4.682304    0.800970
 ---------------------------------------------------------------------
                    Distance matrix (angstroms):
                    1          2          3          4          5
     1  C    0.000000
     2  C    1.405608   0.000000
     3  C    2.444465   1.398267   0.000000
     4  C    2.824703   2.417694   1.394842   0.000000
     5  C    2.440119   2.782561   2.412345   1.395362   0.000000
     6  C    1.405693   2.409770   2.793235   2.425820   1.401170
     7  C    1.559241   2.511998   3.827455   4.379430   3.915080
     8  C    2.480900   2.729358   4.122364   5.035962   4.911391
     9  C    3.806586   4.115908   5.501737   6.430095   6.246488
    10  C    4.381512   5.046200   6.441552   7.175850   6.737299
    11  C    3.943844   4.945889   6.276919   6.754318   6.070561
    12  C    2.698601   3.882465   5.120679   5.448544   4.686838
    13  H    2.146752   1.071730   2.136229   3.382765   3.854225
    14  H    3.411965   2.146507   1.072310   2.143013   3.385083
    15  H    3.408068   3.854946   3.383646   2.141280   1.072387
    16  H    2.148679   3.379689   3.852111   3.373508   2.122414
    17  H    2.595266   2.254035   3.546652   4.671291   4.847632
    18  H    4.624439   4.668073   5.995219   7.065592   7.046984
    19  H    4.830849   5.931478   7.225965   7.590875   6.778445
    20  Cl   3.451833   4.842897   5.813943   5.716128   4.602551
    21  Cl   6.138618   6.740770   8.139002   8.923737   8.492820
    22  Cl   4.584156   4.040418   2.739522   1.759453   2.740947
                    6          7          8          9         10
     6  C    0.000000
     7  C    2.645799   0.000000
     8  C    3.818313   1.406466   0.000000
     9  C    5.067822   2.451460   1.395755   0.000000
    10  C    5.417928   2.832784   2.410635   1.391058   0.000000
    11  C    4.681369   2.449487   2.775808   2.408676   1.393603
    12  C    3.290860   1.429852   2.425330   2.809479   2.435245
    13  H    3.384051   2.652874   2.284900   3.557853   4.695480
    14  H    3.865534   4.658345   4.692855   6.009687   7.087785
    15  H    2.146977   4.787902   5.888083   7.186400   7.561809
    16  H    1.059216   2.889109   4.239873   5.323634   5.400907
    17  H    4.000488   2.142726   1.071495   2.130809   3.374023
    18  H    5.957667   3.417173   2.144986   1.072281   2.140204
    19  H    5.377378   3.419480   3.848005   3.376810   2.135485
    20  Cl   3.294991   2.844844   4.101539   4.560229   3.988951
    21  Cl   7.162592   4.591452   4.033797   2.736088   1.758669
    22  Cl   4.047336   6.138208   6.737535   8.133000   8.926203
                   11         12         13         14         15
    11  C    0.000000
    12  C    1.402328   0.000000
    13  H    4.894608   4.081428   0.000000
    14  H    7.085648   6.019989   2.457524   0.000000
    15  H    6.762762   5.360638   4.926611   4.271362   0.000000
    16  H    4.431848   3.043673   4.275076   4.924417   2.441601
    17  H    3.847199   3.399765   1.466536   3.920299   5.892860
    18  H    3.381682   3.881757   3.907806   6.339762   8.032370
    19  H    1.072208   2.143181   5.944117   8.077757   7.361986
    20  Cl   2.661345   1.758264   5.346438   6.836195   4.941538
    21  Cl   2.737119   4.051137   6.281115   8.720217   9.301474
    22  Cl   8.509573   7.190587   4.875726   2.876511   2.874900
                   16         17         18         19         20
    16  H    0.000000
    17  H    4.647525   0.000000
    18  H    6.306281   2.451539   0.000000
    19  H    4.945184   4.919368   4.263603   0.000000
    20  Cl   2.521361   4.979569   5.631735   2.734078   0.000000
    21  Cl   7.082595   4.866876   2.874030   2.862970   5.369039
    22  Cl   4.863360   6.268204   8.704747   9.329408   7.325413
                   21         22
    21  Cl   0.000000
    22  Cl  10.669245   0.000000
 Stoichiometry    C12H7Cl3
 Framework group  C1[X(C12H7Cl3)]
 Deg. of freedom    60
 Full point group                 C1      NOp   1
 Largest Abelian subgroup         C1      NOp   1
 Largest concise Abelian subgroup C1      NOp   1
                         Standard orientation:                         
 ---------------------------------------------------------------------
 Center     Atomic      Atomic             Coordinates (Angstroms)
 Number     Number       Type             X           Y           Z
 ---------------------------------------------------------------------
      1          6           0       -0.929766   -0.084051    0.000003
      2          6           0       -1.569119   -1.335834    0.000000
      3          6           0       -2.963477   -1.440306   -0.000001
      4          6           0       -3.747208   -0.286464   -0.000001
      5          6           0       -3.132337    0.966121    0.000004
      6          6           0       -1.734892    1.068228    0.000005
      7          6           0        0.629059   -0.120043    0.000003
      8          6           0        1.158849   -1.422912    0.000003
      9          6           0        2.533735   -1.663372    0.000002
     10          6           0        3.422095   -0.592924    0.000001
     11          6           0        2.932903    0.711999    0.000000
     12          6           0        1.554500    0.969929    0.000001
     13          1           0       -0.978668   -2.230245   -0.000002
     14          1           0       -3.429910   -2.405857   -0.000003
     15          1           0       -3.732608    1.854766    0.000006
     16          1           0       -1.297515    2.032924    0.000008
     17          1           0        0.487604   -2.258094    0.000001
     18          1           0        2.904366   -2.669563    0.000002
     19          1           0        3.622350    1.533152   -0.000003
     20         17           0        1.139776    2.678583   -0.000002
     21         17           0        5.156496   -0.884077   -0.000003
     22         17           0       -5.502253   -0.410936   -0.000003
 ---------------------------------------------------------------------
 Rotational constants (GHZ):           1.0782278           0.1729148           0.1490170
 Standard basis: 6-311+G(d,p) (5D, 7F)
 There are   411 symmetry adapted cartesian basis functions of A   symmetry.
 There are   396 symmetry adapted basis functions of A   symmetry.
   396 basis functions,   647 primitive gaussians,   411 cartesian basis functions
    65 alpha electrons       65 beta electrons
       nuclear repulsion energy      1147.8901481952 Hartrees.
 NAtoms=   22 NActive=   22 NUniq=   22 SFac= 1.00D+00 NAtFMM=   60 NAOKFM=F Big=F
 Integral buffers will be    131072 words long.
 Raffenetti 2 integral format.
 Two-electron integral symmetry is turned on.
 One-electron integrals computed using PRISM.
 NBasis=   396 RedAO= T EigKep=  1.27D-06  NBF=   396
 NBsUse=   391 1.00D-06 EigRej=  8.25D-07 NBFU=   391
 Initial guess from the checkpoint file:  "/scratch/pkc/Gau-19667.chk"
 B after Tr=    -0.000000    0.000000    0.000000
         Rot=    0.999831    0.000000    0.000000    0.018398 Ang=   2.11 deg.
 ExpMin= 4.38D-02 ExpMax= 1.06D+05 ExpMxC= 3.62D+03 IAcc=3 IRadAn=         5 AccDes= 0.00D+00
 Harris functional with IExCor=  402 and IRadAn=       5 diagonalized for initial guess.
 HarFok:  IExCor=  402 AccDes= 0.00D+00 IRadAn=         5 IDoV= 1 UseB2=F ITyADJ=14
 ICtDFT=  3500011 ScaDFX=  1.000000  1.000000  1.000000  1.000000
 FoFCou: FMM=F IPFlag=           0 FMFlag=      100000 FMFlg1=           0
         NFxFlg=           0 DoJE=T BraDBF=F KetDBF=T FulRan=T
         wScrn=  0.000000 ICntrl=       500 IOpCl=  0 I1Cent=   200000004 NGrid=           0
         NMat0=    1 NMatS0=      1 NMatT0=    0 NMatD0=    1 NMtDS0=    0 NMtDT0=    0
 Petite list used in FoFCou.
 Requested convergence on RMS density matrix=1.00D-08 within  32 cycles.
 Requested convergence on MAX density matrix=1.00D-06.
 Requested convergence on             energy=1.00D-06.
 No special actions if energy rises.
 SCF Done:  E(RB3LYP) =  -1842.26397582     A.U. after   16 cycles
            NFock= 16  Conv=0.58D-08     -V/T= 2.0030
 QCSCF skips out because SCF is already converged.
 Calling FoFJK, ICntrl=      2127 FMM=F ISym2X=0 I1Cent= 0 IOpClX= 0 NMat=1 NMatS=1 NMatT=0.
 ***** Axes restored to original set *****
 -------------------------------------------------------------------
 Center     Atomic                   Forces (Hartrees/Bohr)
 Number     Number              X              Y              Z
 -------------------------------------------------------------------
      1        6          -0.014702774   -0.023186305    0.000489241
      2        6           0.001980519    0.024782440    0.004002015
      3        6          -0.008233458   -0.002875293    0.002172659
      4        6          -0.006413002   -0.005233954    0.001129570
      5        6           0.002943505   -0.008560684   -0.002577474
      6        6           0.018724900   -0.002514038   -0.006641117
      7        6           0.009122494    0.029467136    0.002528885
      8        6          -0.027285772   -0.016846617    0.005825589
      9        6           0.000575021    0.006629844    0.001055633
     10        6           0.001851577    0.008019129    0.000896110
     11        6           0.005298593    0.000083996   -0.001729745
     12        6           0.016720279   -0.012649905   -0.007884459
     13        1           0.010209912    0.008159024   -0.001831406
     14        1           0.007037105   -0.000651299   -0.002440718
     15        1          -0.002779228    0.006426962    0.002122713
     16        1          -0.013017860    0.002081125    0.004679608
     17        1          -0.003340048   -0.010733417   -0.000915590
     18        1           0.003986811   -0.005778108   -0.002398628
     19        1          -0.006535623   -0.000138392    0.002127139
     20       17           0.004655288    0.002243383   -0.001112415
     21       17           0.000839360    0.003531081    0.000386581
     22       17          -0.001637599   -0.002256109    0.000115808
 -------------------------------------------------------------------
 Cartesian Forces:  Max     0.029467136 RMS     0.009089729

 GradGradGradGradGradGradGradGradGradGradGradGradGradGradGradGradGradGrad
 Berny optimization.
 Using GEDIIS/GDIIS optimizer.
 FormGI is forming the generalized inverse of G from B-inverse, IUseBI=4.
 Internal  Forces:  Max     0.063104454 RMS     0.011404259
 Search for a local minimum.
 Step number   2 out of a maximum of  121
 All quantities printed in internal units (Hartrees-Bohrs-Radians)
 Mixed Optimization -- RFO/linear search
 Update second derivatives using D2CorX and points    1    2
 DE= -4.06D-02 DEPred=-1.50D-01 R= 2.71D-01
 Trust test= 2.71D-01 RLast= 3.00D-01 DXMaxT set to 3.00D-01
 ITU=  0  0
 Use linear search instead of GDIIS.
     Eigenvalues ---    0.00237   0.01478   0.01484   0.02070   0.02070
     Eigenvalues ---    0.02070   0.02070   0.02070   0.02070   0.02070
     Eigenvalues ---    0.02070   0.02070   0.02070   0.02070   0.02070
     Eigenvalues ---    0.02070   0.02070   0.02070   0.02070   0.15968
     Eigenvalues ---    0.16000   0.16000   0.16000   0.16000   0.16000
     Eigenvalues ---    0.16036   0.22003   0.22392   0.22937   0.23494
     Eigenvalues ---    0.23947   0.24447   0.24898   0.25000   0.25000
     Eigenvalues ---    0.25000   0.28452   0.29536   0.29539   0.29539
     Eigenvalues ---    0.37071   0.37192   0.37230   0.37230   0.37230
     Eigenvalues ---    0.37230   0.37230   0.40481   0.41179   0.41295
     Eigenvalues ---    0.41700   0.45055   0.45335   0.45389   0.45389
     Eigenvalues ---    0.45389   0.45389   0.45389   0.45389   2.11023
 RFO step:  Lambda=-1.48406862D-02 EMin= 2.36824177D-03
 Quartic linear search produced a step of -0.31282.
 Iteration  1 RMS(Cart)=  0.15084994 RMS(Int)=  0.00472692
 Iteration  2 RMS(Cart)=  0.00850464 RMS(Int)=  0.00007317
 Iteration  3 RMS(Cart)=  0.00002968 RMS(Int)=  0.00007266
 Iteration  4 RMS(Cart)=  0.00000000 RMS(Int)=  0.00007266
 Variable       Old X    -DE/DX   Delta X   Delta X   Delta X     New X
                                 (Linear)    (Quad)   (Total)
    R1        2.65621   0.01038  -0.00249   0.02266   0.02023   2.67644
    R2        2.65638  -0.00157  -0.00254   0.00487   0.00243   2.65881
    R3        2.94654  -0.00636  -0.01137   0.01422   0.00285   2.94938
    R4        2.64234  -0.00762   0.00185  -0.01576  -0.01394   2.62840
    R5        2.02528  -0.00315  -0.00102  -0.00287  -0.00390   2.02138
    R6        2.63587  -0.00710   0.00388  -0.02121  -0.01743   2.61844
    R7        2.02637   0.00748  -0.00137   0.01686   0.01550   2.04187
    R8        2.63685  -0.01025   0.00357  -0.02541  -0.02191   2.61495
    R9        3.32488  -0.00279   0.00032  -0.00700  -0.00667   3.31821
   R10        2.64783  -0.00834   0.00014  -0.01301  -0.01284   2.63499
   R11        2.02652   0.00731  -0.00141   0.01669   0.01528   2.04180
   R12        2.00163   0.01398   0.00637   0.00794   0.01432   2.01595
   R13        2.65784   0.00915  -0.00299   0.02165   0.01876   2.67659
   R14        2.70203  -0.01739  -0.01682   0.01977   0.00310   2.70513
   R15        2.63759  -0.00614   0.00334  -0.01751  -0.01421   2.62338
   R16        2.02483  -0.00425  -0.00088  -0.00521  -0.00609   2.01874
   R17        2.62872  -0.00646   0.00611  -0.02568  -0.01972   2.60900
   R18        2.02632   0.00742  -0.00135   0.01672   0.01537   2.04169
   R19        2.63353  -0.01074   0.00461  -0.02838  -0.02389   2.60964
   R20        3.32340  -0.00358   0.00079  -0.00992  -0.00914   3.31427
   R21        2.65002  -0.00769  -0.00055  -0.01032  -0.01083   2.63919
   R22        2.02618   0.00682  -0.00131   0.01554   0.01423   2.04041
   R23        3.32264  -0.00175   0.00103  -0.00649  -0.00546   3.31717
    A1        2.05951  -0.01426   0.01091  -0.06238  -0.05130   2.00821
    A2        2.01993   0.05628   0.02330   0.08776   0.11097   2.13090
    A3        2.20375  -0.04202  -0.03421  -0.02538  -0.05967   2.14408
    A4        2.11780   0.00413  -0.00732   0.03137   0.02408   2.14188
    A5        2.08590   0.01091   0.00266   0.03744   0.04008   2.12598
    A6        2.07949  -0.01505   0.00466  -0.06881  -0.06416   2.01533
    A7        2.09266   0.00038   0.00054  -0.00056  -0.00015   2.09251
    A8        2.09560  -0.00011  -0.00038   0.00081   0.00051   2.09610
    A9        2.09492  -0.00027  -0.00017  -0.00026  -0.00036   2.09457
   A10        2.08861   0.00153   0.00181  -0.00292  -0.00128   2.08733
   A11        2.09665  -0.00082  -0.00070   0.00081   0.00019   2.09684
   A12        2.09793  -0.00070  -0.00110   0.00211   0.00109   2.09902
   A13        2.10006  -0.00152  -0.00177  -0.00317  -0.00498   2.09508
   A14        2.09118   0.00106   0.00101   0.00251   0.00353   2.09471
   A15        2.09195   0.00046   0.00077   0.00066   0.00144   2.09339
   A16        2.10773   0.00974  -0.00417   0.03767   0.03363   2.14136
   A17        2.10606  -0.00448  -0.00365  -0.00483  -0.00855   2.09751
   A18        2.06940  -0.00527   0.00782  -0.03283  -0.02508   2.04432
   A19        1.98009   0.06310   0.03576   0.07551   0.11113   2.09122
   A20        2.25165  -0.04467  -0.04919   0.00544  -0.04390   2.20776
   A21        2.05144  -0.01844   0.01344  -0.08094  -0.06723   1.98421
   A22        2.13015   0.00767  -0.01119   0.05071   0.03959   2.16974
   A23        2.07838   0.00674   0.00501   0.01743   0.02240   2.10078
   A24        2.07465  -0.01441   0.00618  -0.06814  -0.06199   2.01266
   A25        2.09036  -0.00192   0.00126  -0.00682  -0.00575   2.08461
   A26        2.09687   0.00104  -0.00077   0.00404   0.00336   2.10023
   A27        2.09596   0.00088  -0.00049   0.00278   0.00239   2.09835
   A28        2.09022  -0.00030   0.00131  -0.00369  -0.00265   2.08757
   A29        2.09718   0.00133  -0.00087   0.00545   0.00471   2.10190
   A30        2.09578  -0.00103  -0.00043  -0.00176  -0.00206   2.09372
   A31        2.11445  -0.00433  -0.00627   0.00090  -0.00545   2.10899
   A32        2.08450   0.00306   0.00310   0.00316   0.00629   2.09078
   A33        2.08424   0.00127   0.00318  -0.00405  -0.00084   2.08341
   A34        2.08976   0.01732   0.00145   0.03985   0.04149   2.13124
   A35        2.19954  -0.01695  -0.03289   0.03783   0.00484   2.20438
   A36        1.99389  -0.00038   0.03144  -0.07767  -0.04633   1.94756
    D1        0.00000  -0.00000  -0.00000  -0.00000  -0.00000   0.00000
    D2        3.14159  -0.00000  -0.00000  -0.00000  -0.00000   3.14159
    D3       -3.14159  -0.00000   0.00000  -0.00000  -0.00000  -3.14159
    D4       -0.00000  -0.00000   0.00000   0.00000   0.00000  -0.00000
    D5       -0.00000   0.00000   0.00000   0.00000   0.00000  -0.00000
    D6        3.14159   0.00000   0.00000   0.00000   0.00000   3.14159
    D7        3.14159  -0.00000  -0.00000   0.00000   0.00000   3.14159
    D8       -0.00000  -0.00000   0.00000  -0.00000  -0.00000  -0.00000
    D9       -0.00000  -0.00000   0.00000  -0.00000  -0.00000  -0.00000
   D10        3.14159  -0.00000   0.00000  -0.00000  -0.00000   3.14159
   D11        3.14159  -0.00000   0.00000  -0.00000  -0.00000   3.14159
   D12       -0.00000  -0.00000   0.00000  -0.00000   0.00000  -0.00000
   D13        0.00000  -0.00000   0.00000  -0.00000  -0.00000   0.00000
   D14        3.14159   0.00000   0.00000   0.00000   0.00000   3.14159
   D15       -3.14159  -0.00000   0.00000  -0.00000  -0.00000  -3.14159
   D16        0.00000  -0.00000   0.00000  -0.00000  -0.00000   0.00000
   D17       -0.00000   0.00000  -0.00000   0.00000   0.00000  -0.00000
   D18        3.14159   0.00000  -0.00000  -0.00000  -0.00000   3.14159
   D19        3.14159   0.00000   0.00000   0.00000   0.00000   3.14159
   D20        0.00000  -0.00000   0.00000  -0.00000  -0.00000   0.00000
   D21        0.00000  -0.00000  -0.00000  -0.00000  -0.00000   0.00000
   D22       -3.14159  -0.00000  -0.00000  -0.00000  -0.00000  -3.14159
   D23       -3.14159   0.00000   0.00000   0.00000   0.00000  -3.14159
   D24        0.00000   0.00000  -0.00000   0.00000   0.00000   0.00000
   D25       -0.00000   0.00000  -0.00000   0.00000   0.00000  -0.00000
   D26        3.14159   0.00000  -0.00000   0.00000   0.00000   3.14159
   D27        3.14159   0.00000  -0.00000   0.00000   0.00000   3.14159
   D28       -0.00000   0.00000  -0.00000   0.00000   0.00000  -0.00000
   D29        3.14159  -0.00000  -0.00000   0.00000   0.00000  -3.14159
   D30        0.00000  -0.00000  -0.00000  -0.00000  -0.00000   0.00000
   D31        0.00000  -0.00000  -0.00000  -0.00000  -0.00000   0.00000
   D32       -3.14159  -0.00000   0.00000  -0.00000  -0.00000  -3.14159
   D33       -3.14159  -0.00000  -0.00000  -0.00000  -0.00000   3.14159
   D34        0.00000  -0.00000   0.00000  -0.00000  -0.00000  -0.00000
   D35       -0.00000   0.00000   0.00000   0.00000   0.00000  -0.00000
   D36        3.14159   0.00000   0.00000   0.00000   0.00000   3.14159
   D37       -0.00000  -0.00000   0.00000   0.00000   0.00000  -0.00000
   D38        3.14159  -0.00000   0.00000  -0.00000  -0.00000   3.14159
   D39        3.14159   0.00000  -0.00000   0.00000   0.00000   3.14159
   D40       -0.00000   0.00000  -0.00000   0.00000   0.00000  -0.00000
   D41       -0.00000   0.00000   0.00000   0.00000   0.00000   0.00000
   D42       -3.14159  -0.00000   0.00000  -0.00000  -0.00000  -3.14159
   D43        3.14159   0.00000  -0.00000   0.00000   0.00000  -3.14159
   D44        0.00000  -0.00000   0.00000  -0.00000  -0.00000   0.00000
   D45        0.00000   0.00000  -0.00000  -0.00000  -0.00000  -0.00000
   D46       -3.14159  -0.00000  -0.00000  -0.00000  -0.00000  -3.14159
   D47        3.14159   0.00000  -0.00000   0.00000   0.00000   3.14159
   D48        0.00000  -0.00000  -0.00000  -0.00000  -0.00000   0.00000
   D49        0.00000  -0.00000  -0.00000  -0.00000  -0.00000   0.00000
   D50       -3.14159  -0.00000  -0.00000  -0.00000  -0.00000  -3.14159
   D51        3.14159   0.00000  -0.00000   0.00000   0.00000   3.14159
   D52       -0.00000   0.00000  -0.00000   0.00000   0.00000  -0.00000
         Item               Value     Threshold  Converged?
 Maximum Force            0.063104     0.000450     NO 
 RMS     Force            0.011404     0.000300     NO 
 Maximum Displacement     0.567128     0.001800     NO 
 RMS     Displacement     0.153361     0.001200     NO 
 Predicted change in Energy=-9.844772D-03
 GradGradGradGradGradGradGradGradGradGradGradGradGradGradGradGradGradGrad

                          Input orientation:                          
 ---------------------------------------------------------------------
 Center     Atomic      Atomic             Coordinates (Angstroms)
 Number     Number       Type             X           Y           Z
 ---------------------------------------------------------------------
      1          6           0       -1.035286    0.947887    0.963340
      2          6           0        0.311666    0.990979    0.527674
      3          6           0        1.056600    2.165301    0.502800
      4          6           0        0.481885    3.356525    0.915864
      5          6           0       -0.831779    3.366916    1.350607
      6          6           0       -1.569503    2.183864    1.371466
      7          6           0       -1.857667   -0.378439    0.985183
      8          6           0       -1.255348   -1.587688    0.559635
      9          6           0       -1.898314   -2.817897    0.540419
     10          6           0       -3.211781   -2.903672    0.957042
     11          6           0       -3.867016   -1.766440    1.386498
     12          6           0       -3.217844   -0.530023    1.404835
     13          1           0        0.824634    0.113678    0.193912
     14          1           0        2.081855    2.149491    0.162056
     15          1           0       -1.286746    4.291955    1.674226
     16          1           0       -2.577577    2.245155    1.715091
     17          1           0       -0.241279   -1.596946    0.223804
     18          1           0       -1.376112   -3.701291    0.202465
     19          1           0       -4.894244   -1.830111    1.712970
     20         17           0       -4.272554    0.744543    1.991695
     21         17           0       -4.049147   -4.444635    0.943511
     22         17           0        1.416345    4.842870    0.887151
[...]
     19          1           0        3.437870    1.667293   -0.237267
     20         17           0        0.747329    2.444133   -0.405690
     21         17           0        5.192566   -0.567528    0.104806
     22         17           0       -5.402984   -0.292570    0.056069
 ---------------------------------------------------------------------
 Rotational constants (GHZ):           1.2091468           0.1739951           0.1577639

 **********************************************************************

            Population analysis using the SCF Density.

 **********************************************************************

 Orbital symmetries:
       Occupied  (A) (A) (A) (A) (A) (A) (A) (A) (A) (A) (A) (A)
                 (A) (A) (A) (A) (A) (A) (A) (A) (A) (A) (A) (A)
                 (A) (A) (A) (A) (A) (A) (A) (A) (A) (A) (A) (A)
                 (A) (A) (A) (A) (A) (A) (A) (A) (A) (A) (A) (A)
                 (A) (A) (A) (A) (A) (A) (A) (A) (A) (A) (A) (A)
                 (A) (A) (A) (A) (A)
       Virtual   (A) (A) (A) (A) (A) (A) (A) (A) (A) (A) (A) (A)
                 (A) (A) (A) (A) (A) (A) (A) (A) (A) (A) (A) (A)
                 (A) (A) (A) (A) (A) (A) (A) (A) (A) (A) (A) (A)
                 (A) (A) (A) (A) (A) (A) (A) (A) (A) (A) (A) (A)
                 (A) (A) (A) (A) (A) (A) (A) (A) (A) (A) (A) (A)
                 (A) (A) (A) (A) (A) (A) (A) (A) (A) (A) (A) (A)
                 (A) (A) (A) (A) (A) (A) (A) (A) (A) (A) (A) (A)
                 (A) (A) (A) (A) (A) (A) (A) (A) (A) (A) (A) (A)
                 (A) (A) (A) (A) (A) (A) (A) (A) (A) (A) (A) (A)
                 (A) (A) (A) (A) (A) (A) (A) (A) (A) (A) (A) (A)
                 (A) (A) (A) (A) (A) (A) (A) (A) (A) (A) (A) (A)
                 (A) (A) (A) (A) (A) (A) (A) (A) (A) (A) (A) (A)
                 (A) (A) (A) (A) (A) (A) (A) (A) (A) (A) (A) (A)
                 (A) (A) (A) (A) (A) (A) (A) (A) (A) (A) (A) (A)
                 (A) (A) (A) (A) (A) (A) (A) (A) (A) (A) (A) (A)
                 (A) (A) (A) (A) (A) (A) (A) (A) (A) (A) (A) (A)
                 (A) (A) (A) (A) (A) (A) (A) (A) (A) (A) (A) (A)
                 (A) (A) (A) (A) (A) (A) (A) (A) (A) (A) (A) (A)
                 (A) (A) (A) (A) (A) (A) (A) (A) (A) (A) (A) (A)
                 (A) (A) (A) (A) (A) (A) (A) (A) (A) (A) (A) (A)
                 (A) (A) (A) (A) (A) (A) (A) (A) (A) (A) (A) (A)
                 (A) (A) (A) (A) (A) (A) (A) (A) (A) (A) (A) (A)
                 (A) (A) (A) (A) (A) (A) (A) (A) (A) (A) (A) (A)
                 (A) (A) (A) (A) (A) (A) (A) (A) (A) (A) (A) (A)
                 (A) (A) (A) (A) (A) (A) (A) (A) (A) (A) (A) (A)
                 (A) (A) (A) (A) (A) (A) (A) (A) (A) (A) (A) (A)
                 (A) (A) (A) (A) (A) (A) (A) (A) (A) (A) (A) (A)
                 (A) (A) (A) (A) (A)
 The electronic state is 1-A.
 Alpha  occ. eigenvalues -- -101.56806-101.56698-101.56113 -10.26231 -10.25959
 Alpha  occ. eigenvalues --  -10.25051 -10.21978 -10.21077 -10.20998 -10.20847
 Alpha  occ. eigenvalues --  -10.20632 -10.20081 -10.20022 -10.20006 -10.19946
 Alpha  occ. eigenvalues --   -9.48260  -9.48172  -9.47570  -7.24725  -7.24638
 Alpha  occ. eigenvalues --   -7.24027  -7.23741  -7.23705  -7.23659  -7.23606
 Alpha  occ. eigenvalues --   -7.23055  -7.23019  -0.92731  -0.90648  -0.88919
 Alpha  occ. eigenvalues --   -0.85945  -0.84098  -0.78651  -0.77597  -0.76623
 Alpha  occ. eigenvalues --   -0.72895  -0.64951  -0.63708  -0.62986  -0.60262
 Alpha  occ. eigenvalues --   -0.55413  -0.51567  -0.51166  -0.48947  -0.48817
 Alpha  occ. eigenvalues --   -0.47475  -0.45665  -0.45017  -0.45001  -0.42776
 Alpha  occ. eigenvalues --   -0.41352  -0.41045  -0.39510  -0.38050  -0.37936
 Alpha  occ. eigenvalues --   -0.37467  -0.34964  -0.33629  -0.33320  -0.32740
 Alpha  occ. eigenvalues --   -0.32419  -0.28121  -0.28050  -0.27393  -0.25008
 Alpha virt. eigenvalues --   -0.05705  -0.04822  -0.03628  -0.02314  -0.01325
 Alpha virt. eigenvalues --   -0.00792   0.00679   0.00994   0.01313   0.01898
 Alpha virt. eigenvalues --    0.02272   0.03243   0.03949   0.04237   0.04654
 Alpha virt. eigenvalues --    0.05238   0.05856   0.06261   0.06724   0.07130
 Alpha virt. eigenvalues --    0.07972   0.08429   0.08887   0.09338   0.09891
 Alpha virt. eigenvalues --    0.10053   0.10554   0.11019   0.11350   0.11616
 Alpha virt. eigenvalues --    0.12025   0.12109   0.12402   0.13249   0.13427
 Alpha virt. eigenvalues --    0.13912   0.14527   0.14897   0.14977   0.15589
 Alpha virt. eigenvalues --    0.15998   0.16736   0.16914   0.17215   0.17863
 Alpha virt. eigenvalues --    0.18506   0.18761   0.18977   0.19169   0.19368
 Alpha virt. eigenvalues --    0.19627   0.19848   0.20688   0.20936   0.21243
 Alpha virt. eigenvalues --    0.21766   0.22575   0.22849   0.22955   0.23072
 Alpha virt. eigenvalues --    0.23887   0.24126   0.24623   0.25317   0.25575
 Alpha virt. eigenvalues --    0.25797   0.26754   0.26798   0.27182   0.27538
 Alpha virt. eigenvalues --    0.28410   0.28830   0.29134   0.29304   0.29894
 Alpha virt. eigenvalues --    0.30391   0.31268   0.31467   0.33140   0.33655
 Alpha virt. eigenvalues --    0.34246   0.34489   0.35691   0.41204   0.42087
 Alpha virt. eigenvalues --    0.43285   0.44637   0.45450   0.45954   0.46158
 Alpha virt. eigenvalues --    0.46723   0.47402   0.48094   0.50168   0.50286
 Alpha virt. eigenvalues --    0.50893   0.51555   0.52780   0.53705   0.55511
 Alpha virt. eigenvalues --    0.55738   0.56727   0.57148   0.57309   0.57776
 Alpha virt. eigenvalues --    0.58840   0.58955   0.60071   0.60656   0.61923
 Alpha virt. eigenvalues --    0.62187   0.63265   0.63408   0.64560   0.65371
 Alpha virt. eigenvalues --    0.66394   0.67201   0.67797   0.68706   0.69114
 Alpha virt. eigenvalues --    0.69641   0.70162   0.70642   0.71857   0.72098
 Alpha virt. eigenvalues --    0.72854   0.73792   0.75477   0.77945   0.80945
 Alpha virt. eigenvalues --    0.82429   0.82966   0.83338   0.84177   0.84466
 Alpha virt. eigenvalues --    0.84644   0.84720   0.85299   0.85449   0.85640
 Alpha virt. eigenvalues --    0.86105   0.86199   0.86748   0.87853   0.88752
 Alpha virt. eigenvalues --    0.89238   0.89685   0.90877   0.91514   0.92385
 Alpha virt. eigenvalues --    0.93991   0.94436   0.94717   0.95063   0.96782
 Alpha virt. eigenvalues --    0.97185   0.99170   0.99727   1.00733   1.01378
 Alpha virt. eigenvalues --    1.03121   1.05028   1.06421   1.07477   1.09224
 Alpha virt. eigenvalues --    1.12011   1.12695   1.13635   1.15013   1.18565
 Alpha virt. eigenvalues --    1.19529   1.23705   1.24395   1.25006   1.26188
 Alpha virt. eigenvalues --    1.28833   1.30444   1.30693   1.32767   1.35644
 Alpha virt. eigenvalues --    1.39932   1.44056   1.48731   1.49874   1.50078
 Alpha virt. eigenvalues --    1.51135   1.51580   1.53942   1.54437   1.54734
 Alpha virt. eigenvalues --    1.56353   1.58359   1.60339   1.60966   1.63040
 Alpha virt. eigenvalues --    1.64712   1.66829   1.67907   1.69318   1.71485
 Alpha virt. eigenvalues --    1.72051   1.72926   1.75950   1.76498   1.79292
 Alpha virt. eigenvalues --    1.83072   1.85101   1.86439   1.89474   1.90509
 Alpha virt. eigenvalues --    1.90998   1.92663   1.92696   1.93732   1.94566
 Alpha virt. eigenvalues --    1.95127   1.96200   1.96436   1.97657   2.00303
 Alpha virt. eigenvalues --    2.03099   2.04379   2.04897   2.06880   2.07501
 Alpha virt. eigenvalues --    2.08495   2.14786   2.17375   2.20358   2.23501
 Alpha virt. eigenvalues --    2.26648   2.27371   2.28158   2.28976   2.29886
 Alpha virt. eigenvalues --    2.34590   2.35649   2.38726   2.39557   2.40778
 Alpha virt. eigenvalues --    2.41226   2.43074   2.45122   2.51015   2.53667
 Alpha virt. eigenvalues --    2.53904   2.54831   2.56031   2.59706   2.62028
 Alpha virt. eigenvalues --    2.65253   2.65720   2.66828   2.68075   2.70357
 Alpha virt. eigenvalues --    2.70811   2.72147   2.73119   2.74086   2.74831
 Alpha virt. eigenvalues --    2.76453   2.76890   2.77752   2.78812   2.79476
 Alpha virt. eigenvalues --    2.80841   2.83704   2.83884   2.84727   2.88669
 Alpha virt. eigenvalues --    2.91847   2.92364   2.98212   2.99617   3.07168
 Alpha virt. eigenvalues --    3.08334   3.09417   3.14506   3.15636   3.16950
 Alpha virt. eigenvalues --    3.21417   3.24239   3.32041   3.34589   3.39715
 Alpha virt. eigenvalues --    3.43870   3.48325   3.52860   3.58331   3.59668
 Alpha virt. eigenvalues --    3.68782   3.77588   3.79930   3.86860   3.96935
 Alpha virt. eigenvalues --    4.05847   4.12148   4.12926   4.14053   4.39179
 Alpha virt. eigenvalues --    4.80422   4.83510   9.76248   9.77435   9.80471
 Alpha virt. eigenvalues --   23.44332  23.61421  23.85816  23.90228  23.92399
 Alpha virt. eigenvalues --   23.94340  23.98136  24.05348  24.05885  24.08113
 Alpha virt. eigenvalues --   24.13482  24.16457  25.82267  25.82893  25.88484
 Alpha virt. eigenvalues --   26.10327  26.12099  26.24932  26.57290  26.59172
 Alpha virt. eigenvalues --   26.70301 215.75282 215.76467 215.80258
          Condensed to atoms (all electrons):
               1          2          3          4          5          6
     1  C   26.400222  -2.486979  -0.813397  -7.507332   1.456729  -7.246210
     2  C   -2.486979  25.784539  -1.403188   0.325680  -1.735664 -13.941070
     3  C   -0.813397  -1.403188  18.790795  -1.862953  -7.912612  -1.129221
     4  C   -7.507332   0.325680  -1.862953  17.633999  -3.988781   2.061118
     5  C    1.456729  -1.735664  -7.912612  -3.988781  22.250912  -4.530532
     6  C   -7.246210 -13.941070  -1.129221   2.061118  -4.530532  31.233192
     7  C    1.946915  -0.998452   0.489375  -0.656957   0.904753  -1.904517
     8  C    1.079453   2.690938   0.042606   0.004121   0.157996  -2.459024
     9  C    0.378719   0.009900  -0.053139   0.047981   0.124204   0.004922
    10  C   -0.745793   0.209760   0.060442   0.020868  -0.077810   0.044505
    11  C    0.510575  -0.387434   0.040598   0.026380  -0.035071   0.522931
    12  C   -7.717801  -2.121943   0.322579   0.124450  -0.492850   3.820853
    13  H    0.065321   0.307171  -0.026494  -0.017622  -0.017517   0.020779
    14  H   -0.013170  -0.011809   0.252850   0.085359   0.053173  -0.010171
    15  H   -0.001540  -0.017693   0.066227   0.077329   0.246459  -0.018736
    16  H    0.001994   0.050617  -0.030871   0.002191  -0.046489   0.352459
    17  H   -0.027645   0.111380  -0.006492   0.005012  -0.009337  -0.048517
    18  H    0.003283   0.001023   0.000016  -0.000055  -0.000024  -0.001765
    19  H    0.007713   0.002536  -0.000065  -0.000138  -0.000224  -0.004788
    20  Cl  -0.245641  -0.170582  -0.084788  -0.041135   0.217489   0.042585
    21  Cl  -0.015076   0.013780   0.002077   0.001028  -0.000641  -0.007069
    22  Cl  -0.181759   0.336484  -0.018798  -1.223823   0.165722   0.253004
               7          8          9         10         11         12
     1  C    1.946915   1.079453   0.378719  -0.745793   0.510575  -7.717801
     2  C   -0.998452   2.690938   0.009900   0.209760  -0.387434  -2.121943
     3  C    0.489375   0.042606  -0.053139   0.060442   0.040598   0.322579
     4  C   -0.656957   0.004121   0.047981   0.020868   0.026380   0.124450
     5  C    0.904753   0.157996   0.124204  -0.077810  -0.035071  -0.492850
     6  C   -1.904517  -2.459024   0.004922   0.044505   0.522931   3.820853
     7  C   19.581687   0.000415  -2.471724  -4.398170   2.940228  -8.624805
     8  C    0.000415  12.418887   0.906833  -1.336660   1.261719  -8.209222
     9  C   -2.471724   0.906833  15.615547  -1.250432  -9.136705   1.414579
    10  C   -4.398170  -1.336660  -1.250432  16.066810  -3.153777   0.960279
    11  C    2.940228   1.261719  -9.136705  -3.153777  25.568580 -11.160306
    12  C   -8.624805  -8.209222   1.414579   0.960279 -11.160306  36.747819
    13  H   -0.006972   0.029787  -0.004614  -0.000281   0.010248  -0.006729
    14  H    0.000248  -0.003410  -0.000596  -0.000011  -0.000311   0.001068
    15  H   -0.001396  -0.001812  -0.000413   0.000017   0.000991   0.004449
    16  H   -0.042627  -0.034355  -0.007332   0.004002  -0.010881   0.111634
    17  H   -0.004764   0.421788  -0.072210   0.019166  -0.012390  -0.029355
    18  H    0.020426  -0.076490   0.324897   0.027620   0.070427  -0.013342
    19  H    0.074093  -0.019713   0.076285   0.015024   0.224439  -0.027107
    20  Cl  -1.078655  -0.410366   0.369672  -0.126435  -0.588119   1.191059
    21  Cl  -0.098526   0.150490   0.190106  -1.200069   0.349862  -0.081507
    22  Cl  -0.014932   0.008171   0.003916   0.000281  -0.000832  -0.015303
              13         14         15         16         17         18
     1  C    0.065321  -0.013170  -0.001540   0.001994  -0.027645   0.003283
     2  C    0.307171  -0.011809  -0.017693   0.050617   0.111380   0.001023
     3  C   -0.026494   0.252850   0.066227  -0.030871  -0.006492   0.000016
     4  C   -0.017622   0.085359   0.077329   0.002191   0.005012  -0.000055
     5  C   -0.017517   0.053173   0.246459  -0.046489  -0.009337  -0.000024
     6  C    0.020779  -0.010171  -0.018736   0.352459  -0.048517  -0.001765
     7  C   -0.006972   0.000248  -0.001396  -0.042627  -0.004764   0.020426
     8  C    0.029787  -0.003410  -0.001812  -0.034355   0.421788  -0.076490
     9  C   -0.004614  -0.000596  -0.000413  -0.007332  -0.072210   0.324897
    10  C   -0.000281  -0.000011   0.000017   0.004002   0.019166   0.027620
    11  C    0.010248  -0.000311   0.000991  -0.010881  -0.012390   0.070427
    12  C   -0.006729   0.001068   0.004449   0.111634  -0.029355  -0.013342
    13  H    0.528367  -0.007878   0.000069  -0.000274  -0.000646   0.000021
    14  H   -0.007878   0.514078  -0.000317   0.000065   0.000029   0.000000
    15  H    0.000069  -0.000317   0.513895  -0.007688   0.000002   0.000000
    16  H   -0.000274   0.000065  -0.007688   0.519531  -0.000053   0.000004
    17  H   -0.000646   0.000029   0.000002  -0.000053   0.522903  -0.007301
    18  H    0.000021   0.000000   0.000000   0.000004  -0.007301   0.509626
    19  H    0.000001   0.000000   0.000000   0.000023   0.000045  -0.000285
    20  Cl  -0.002793  -0.000190  -0.001099   0.001010  -0.001217   0.001036
    21  Cl  -0.000059  -0.000001  -0.000001  -0.000102   0.000701  -0.010954
    22  Cl   0.000016  -0.010025  -0.010409  -0.000025  -0.000116  -0.000001
              19         20         21         22
     1  C    0.007713  -0.245641  -0.015076  -0.181759
     2  C    0.002536  -0.170582   0.013780   0.336484
     3  C   -0.000065  -0.084788   0.002077  -0.018798
     4  C   -0.000138  -0.041135   0.001028  -1.223823
     5  C   -0.000224   0.217489  -0.000641   0.165722
     6  C   -0.004788   0.042585  -0.007069   0.253004
     7  C    0.074093  -1.078655  -0.098526  -0.014932
     8  C   -0.019713  -0.410366   0.150490   0.008171
     9  C    0.076285   0.369672   0.190106   0.003916
    10  C    0.015024  -0.126435  -1.200069   0.000281
    11  C    0.224439  -0.588119   0.349862  -0.000832
    12  C   -0.027107   1.191059  -0.081507  -0.015303
    13  H    0.000001  -0.002793  -0.000059   0.000016
    14  H    0.000000  -0.000190  -0.000001  -0.010025
    15  H    0.000000  -0.001099  -0.000001  -0.010409
    16  H    0.000023   0.001010  -0.000102  -0.000025
    17  H    0.000045  -0.001217   0.000701  -0.000116
    18  H   -0.000285   0.001036  -0.010954  -0.000001
    19  H    0.493166  -0.004392  -0.010304  -0.000001
    20  Cl  -0.004392  17.570873  -0.027785   0.002432
    21  Cl  -0.010304  -0.027785  17.360241   0.000021
    22  Cl  -0.000001   0.002432   0.000021  17.339669
 Mulliken charges:
               1
     1  C    1.151417
     2  C   -0.568995
     3  C   -0.725547
     4  C    0.883282
     5  C   -0.729883
     6  C   -1.054727
     7  C    0.344355
     8  C   -0.622151
     9  C   -0.470397
    10  C    0.860662
    11  C   -1.041151
    12  C   -0.198499
    13  H    0.130098
    14  H    0.151018
    15  H    0.151665
    16  H    0.137165
    17  H    0.139019
    18  H    0.151836
    19  H    0.173693
    20  Cl   0.387042
    21  Cl   0.383789
    22  Cl   0.366309
 Sum of Mulliken charges =  -0.00000
 Mulliken charges with hydrogens summed into heavy atoms:
               1
     1  C    1.151417
     2  C   -0.438897
     3  C   -0.574529
     4  C    0.883282
     5  C   -0.578219
     6  C   -0.917562
     7  C    0.344355
     8  C   -0.483132
     9  C   -0.318562
    10  C    0.860662
    11  C   -0.867458
    12  C   -0.198499
    20  Cl   0.387042
    21  Cl   0.383789
    22  Cl   0.366309
 Electronic spatial extent (au):  <R**2>=           6110.1723
 Charge=              0.0000 electrons
 Dipole moment (field-independent basis, Debye):
    X=              0.4607    Y=             -1.2532    Z=              0.2380  Tot=              1.3563
 Quadrupole moment (field-independent basis, Debye-Ang):
   XX=           -120.3456   YY=           -103.4200   ZZ=           -107.0632
   XY=             -0.5907   XZ=             -0.0139   YZ=              3.6473
 Traceless Quadrupole moment (field-independent basis, Debye-Ang):
   XX=            -10.0693   YY=              6.8562   ZZ=              3.2131
   XY=             -0.5907   XZ=             -0.0139   YZ=              3.6473
 Octapole moment (field-independent basis, Debye-Ang**2):
  XXX=             22.2327  YYY=             -3.4244  ZZZ=             -1.4334  XYY=              7.5605
  XXY=             11.9340  XXZ=             -1.7912  XZZ=             -9.8686  YZZ=              3.4827
  YYZ=             -0.6498  XYZ=            -12.6077
 Hexadecapole moment (field-independent basis, Debye-Ang**3):
 XXXX=          -7189.5896 YYYY=           -961.1351 ZZZZ=           -295.3800 XXXY=             15.8694
 XXXZ=             -3.1073 YYYX=            -24.4110 YYYZ=             -6.2595 ZZZX=             -2.4862
 ZZZY=             13.1919 XXYY=          -1278.8690 XXZZ=          -1197.4044 YYZZ=           -210.6786
 XXYZ=             23.8148 YYXZ=              9.9861 ZZXY=              3.0366
 N-N= 1.160893358555D+03 E-N=-6.673727978917D+03  KE= 1.836984478020D+03
 1\1\GINC-DAMODAR\FOpt\RB3LYP\6-311+G(d,p)\C12H7Cl3\PKC\15-Mar-2022\0\\
 # opt b3lyp/6-311+g(d,p) scf=xqc\\Title Card Required\\0,1\C,-1.060438
 4308,0.911996418,0.9989413138\C,0.3258995461,0.8914977636,1.1925486853
 \C,1.0751412377,2.0650912325,1.1652079281\C,0.4290449697,3.2742080744,
 0.9347384188\C,-0.9470024257,3.3246906558,0.7333998786\C,-1.6832665565
 ,2.1450018226,0.7695676949\C,-1.8288189449,-0.3626281908,0.9868574997\
 C,-1.4674828019,-1.3721967479,0.0814823502\C,-2.1393116211,-2.58670561
 92,0.0117972057\C,-3.2082615502,-2.8096261893,0.872366737\C,-3.5998392
 359,-1.8454345703,1.7922564701\C,-2.90819425,-0.637334347,1.8400711816
 \H,0.8266521018,-0.0509873681,1.3830591124\H,2.1454203262,2.0408615893
 ,1.3252536289\H,-1.4347722942,4.2730547093,0.5479563214\H,-2.753166289
 2,2.1864063451,0.6060382921\H,-0.6446303892,-1.1845126649,-0.598452061
 3\H,-1.8436718337,-3.3437529856,-0.7025873632\H,-4.4221696093,-2.02927
 07132,2.4695833143\Cl,-3.4154890819,0.5214423659,3.0623013654\Cl,-4.07
 92635189,-4.3319217547,0.8050691209\Cl,1.364410692,4.7621433343,0.8947
 852453\\Version=EM64L-G16RevB.01\State=1-A\HF=-1842.2853888\RMSD=3.698
 e-09\RMSF=3.622e-06\Dipole=0.174508,-0.3272523,-0.3836391\Quadrupole=2
 .3997201,-3.2146538,0.8149337,-6.5000549,-0.4902208,0.7376852\PG=C01 [
 X(C12H7Cl3)]\\@


 NOT WHAT WE DID SHALL BE THE TEST
 WHEN ACT AND WILL ARE DONE,
 BUT WHAT OUR LORD INFERS WE WOULD-
 HAD WE DIVINER BEEN.
           EMILY DICKINSON  POEMS NO. CLXXV
 Job cpu time:       0 days 13 hours 18 minutes 29.4 seconds.
 Elapsed time:       0 days  3 hours 51 minutes 34.6 seconds.
 File lengths (MBytes):  RWF=    110 Int=      0 D2E=      0 Chk=     17 Scr=      1
 Normal termination of Gaussian 16 at Tue Mar 15 04:36:13 2022.
