 Entering Gaussian System, Link 0=g16
 Input=2,4-Dichlorobiphenyl.gjf
 Output=2,4-Dichlorobiphenyl.log
 Initial command:
 /usr/local/g16/l1.exe "/scratch/pkc/Gau-2879.inp" -scrdir="/scratch/pkc/"
 Entering Link 1 = /usr/local/g16/l1.exe PID=      2880.
  
 Copyright (c) 1988-2017, Gaussian, Inc.  All Rights Reserved.
  
 This is part of the Gaussian(R) 16 program.  It is based on
 the Gaussian(R) 09 system (copyright 2009, Gaussian, Inc.),
 the Gaussian(R) 03 system (copyright 2003, Gaussian, Inc.),
 the Gaussian(R) 98 system (copyright 1998, Gaussian, Inc.),
 the Gaussian(R) 94 system (copyright 1995, Gaussian, Inc.),
 the Gaussian 92(TM) system (copyright 1992, Gaussian, Inc.),
 the Gaussian 90(TM) system (copyright 1990, Gaussian, Inc.),
 the Gaussian 88(TM) system (copyright 1988, Gaussian, Inc.),
 the Gaussian 86(TM) system (copyright 1986, Carnegie Mellon
 University), and the Gaussian 82(TM) system (copyright 1983,
 Carnegie Mellon University). Gaussian is a federally registered
 trademark of Gaussian, Inc.
  
 This software contains proprietary and confidential information,
 including trade secrets, belonging to Gaussian, Inc.
  
 This software is provided under written license and may be
 used, copied, transmitted, or stored only in accord with that
 written license.
  
 The following legend is applicable only to US Government
 contracts under FAR:
  
                    RESTRICTED RIGHTS LEGEND
  
 Use, reproduction and disclosure by the US Government is
 subject to restrictions as set forth in subparagraphs (a)
 and (c) of the Commercial Computer Software - Restricted
 Rights clause in FAR 52.227-19.
  
 Gaussian, Inc.
 340 Quinnipiac St., Bldg. 40, Wallingford CT 06492
  
  
 ---------------------------------------------------------------
 Warning -- This program may not be used in any manner that
 competes with the business of Gaussian, Inc. or will provide
 assistance to any competitor of Gaussian, Inc.  The licensee
 of this program is prohibited from giving any competitor of
 Gaussian, Inc. access to this program.  By using this program,
 the user acknowledges that Gaussian, Inc. is engaged in the
 business of creating and licensing software in the field of
 computational chemistry and represents and warrants to the
 licensee that it is not a competitor of Gaussian, Inc. and that
 it will not use this program in any manner prohibited above.
 ---------------------------------------------------------------
  

 Cite this work as:
 Gaussian 16, Revision B.01,
 M. J. Frisch, G. W. Trucks, H. B. Schlegel, G. E. Scuseria, 
 M. A. Robb, J. R. Cheeseman, G. Scalmani, V. Barone, 
 G. A. Petersson, H. Nakatsuji, X. Li, M. Caricato, A. V. Marenich, 
 J. Bloino, B. G. Janesko, R. Gomperts, B. Mennucci, H. P. Hratchian, 
 J. V. Ortiz, A. F. Izmaylov, J. L. Sonnenberg, D. Williams-Young, 
 F. Ding, F. Lipparini, F. Egidi, J. Goings, B. Peng, A. Petrone, 
 T. Henderson, D. Ranasinghe, V. G. Zakrzewski, J. Gao, N. Rega, 
 G. Zheng, W. Liang, M. Hada, M. Ehara, K. Toyota, R. Fukuda, 
 J. Hasegawa, M. Ishida, T. Nakajima, Y. Honda, O. Kitao, H. Nakai, 
 T. Vreven, K. Throssell, J. A. Montgomery, Jr., J. E. Peralta, 
 F. Ogliaro, M. J. Bearpark, J. J. Heyd, E. N. Brothers, K. N. Kudin, 
 V. N. Staroverov, T. A. Keith, R. Kobayashi, J. Normand, 
 K. Raghavachari, A. P. Rendell, J. C. Burant, S. S. Iyengar, 
 J. Tomasi, M. Cossi, J. M. Millam, M. Klene, C. Adamo, R. Cammi, 
 J. W. Ochterski, R. L. Martin, K. Morokuma, O. Farkas, 
 J. B. Foresman, and D. J. Fox, Gaussian, Inc., Wallingford CT, 2016.
 
 ******************************************
 Gaussian 16:  EM64L-G16RevB.01 20-Dec-2017
                14-Mar-2022 
 ******************************************
 %mem=10GB
 %nprocshared=4
 Will use up to    4 processors via shared memory.
 --------------------------------
 # opt b3lyp/6-311+g(d,p) scf=xqc
 --------------------------------
 1/18=20,19=15,26=3,38=1/1,3;
 2/9=110,12=2,17=6,18=5,40=1/2;
 3/5=4,6=6,7=111,11=2,25=1,30=1,71=1,74=-5/1,2,3;
 4//1;
 5/5=2,8=3,13=1,38=5/2,8;
 6/7=2,8=2,9=2,10=2,28=1/1;
 7//1,2,3,16;
 1/18=20,19=15,26=3/3(2);
 2/9=110/2;
 99//99;
 2/9=110/2;
 3/5=4,6=6,7=111,11=2,25=1,30=1,71=1,74=-5/1,2,3;
 4/5=5,16=3,69=1/1;
 5/5=2,8=3,13=1,38=5/2,8;
 7//1,2,3,16;
 1/18=20,19=15,26=3/3(-5);
 2/9=110/2;
 6/7=2,8=2,9=2,10=2,19=2,28=1/1;
 99/9=1/99;
 -------------------
 Title Card Required
 -------------------
 Symbolic Z-matrix:
 Charge =  0 Multiplicity = 1
 C                    -1.26317  -2.35069  -0.10235 
 C                     0.06921  -2.32081  -0.53569 
 C                     0.7771   -1.11136  -0.54177 
 C                     0.15262   0.06821  -0.11449 
 C                    -1.17976   0.03832   0.31885 
 C                    -1.88766  -1.17113   0.32493 
 C                    -2.04108  -3.67976  -0.09567 
 C                    -1.41659  -4.85933  -0.52295 
 C                    -2.12448  -6.06878  -0.51687 
 C                    -3.45686  -6.09866  -0.08352 
 C                    -4.08135  -4.9191    0.34375 
 C                    -3.37346  -3.70965   0.33768 
 H                     1.79441  -1.08854  -0.87263 
 H                    -1.65658   0.93895   0.64509 
 H                    -2.90496  -1.19395   0.6558 
 H                    -0.39929  -4.83651  -0.85382 
 H                    -1.64767  -6.9694   -0.84311 
 H                    -3.99735  -7.02211  -0.07888 
 H                    -5.09865  -4.94192   0.67463 
 H                    -3.85026  -2.80902   0.66391 
 Cl                    0.8535   -3.80221  -1.0723 
 Cl                    1.04165   1.58714  -0.12212 
 

 GradGradGradGradGradGradGradGradGradGradGradGradGradGradGradGradGradGrad
 Berny optimization.
 Initialization pass.
                           ----------------------------
                           !    Initial Parameters    !
                           ! (Angstroms and Degrees)  !
 --------------------------                            --------------------------
 ! Name  Definition              Value          Derivative Info.                !
 --------------------------------------------------------------------------------
 ! R1    R(1,2)                  1.4014         estimate D2E/DX2                !
 ! R2    R(1,6)                  1.4014         estimate D2E/DX2                !
 ! R3    R(1,7)                  1.54           estimate D2E/DX2                !
 ! R4    R(2,3)                  1.4014         estimate D2E/DX2                !
 ! R5    R(2,21)                 1.76           estimate D2E/DX2                !
 ! R6    R(3,4)                  1.4014         estimate D2E/DX2                !
 ! R7    R(3,13)                 1.07           estimate D2E/DX2                !
 ! R8    R(4,5)                  1.4014         estimate D2E/DX2                !
 ! R9    R(4,22)                 1.76           estimate D2E/DX2                !
 ! R10   R(5,6)                  1.4014         estimate D2E/DX2                !
 ! R11   R(5,14)                 1.07           estimate D2E/DX2                !
 ! R12   R(6,15)                 1.07           estimate D2E/DX2                !
 ! R13   R(7,8)                  1.4014         estimate D2E/DX2                !
 ! R14   R(7,12)                 1.4014         estimate D2E/DX2                !
 ! R15   R(8,9)                  1.4014         estimate D2E/DX2                !
 ! R16   R(8,16)                 1.07           estimate D2E/DX2                !
 ! R17   R(9,10)                 1.4014         estimate D2E/DX2                !
 ! R18   R(9,17)                 1.07           estimate D2E/DX2                !
 ! R19   R(10,11)                1.4014         estimate D2E/DX2                !
 ! R20   R(10,18)                1.07           estimate D2E/DX2                !
 ! R21   R(11,12)                1.4014         estimate D2E/DX2                !
 ! R22   R(11,19)                1.07           estimate D2E/DX2                !
 ! R23   R(12,20)                1.07           estimate D2E/DX2                !
 ! A1    A(2,1,6)              120.0            estimate D2E/DX2                !
 ! A2    A(2,1,7)              120.0            estimate D2E/DX2                !
 ! A3    A(6,1,7)              120.0            estimate D2E/DX2                !
 ! A4    A(1,2,3)              120.0            estimate D2E/DX2                !
 ! A5    A(1,2,21)             120.0            estimate D2E/DX2                !
 ! A6    A(3,2,21)             120.0            estimate D2E/DX2                !
 ! A7    A(2,3,4)              120.0            estimate D2E/DX2                !
 ! A8    A(2,3,13)             120.0            estimate D2E/DX2                !
 ! A9    A(4,3,13)             120.0            estimate D2E/DX2                !
 ! A10   A(3,4,5)              120.0            estimate D2E/DX2                !
 ! A11   A(3,4,22)             120.0            estimate D2E/DX2                !
 ! A12   A(5,4,22)             120.0            estimate D2E/DX2                !
 ! A13   A(4,5,6)              120.0            estimate D2E/DX2                !
 ! A14   A(4,5,14)             120.0            estimate D2E/DX2                !
 ! A15   A(6,5,14)             120.0            estimate D2E/DX2                !
 ! A16   A(1,6,5)              120.0            estimate D2E/DX2                !
 ! A17   A(1,6,15)             120.0            estimate D2E/DX2                !
 ! A18   A(5,6,15)             120.0            estimate D2E/DX2                !
 ! A19   A(1,7,8)              120.0            estimate D2E/DX2                !
 ! A20   A(1,7,12)             120.0            estimate D2E/DX2                !
 ! A21   A(8,7,12)             120.0            estimate D2E/DX2                !
 ! A22   A(7,8,9)              120.0            estimate D2E/DX2                !
 ! A23   A(7,8,16)             120.0            estimate D2E/DX2                !
 ! A24   A(9,8,16)             120.0            estimate D2E/DX2                !
 ! A25   A(8,9,10)             120.0            estimate D2E/DX2                !
 ! A26   A(8,9,17)             120.0            estimate D2E/DX2                !
 ! A27   A(10,9,17)            120.0            estimate D2E/DX2                !
 ! A28   A(9,10,11)            120.0            estimate D2E/DX2                !
 ! A29   A(9,10,18)            120.0            estimate D2E/DX2                !
 ! A30   A(11,10,18)           120.0            estimate D2E/DX2                !
 ! A31   A(10,11,12)           120.0            estimate D2E/DX2                !
 ! A32   A(10,11,19)           120.0            estimate D2E/DX2                !
 ! A33   A(12,11,19)           120.0            estimate D2E/DX2                !
 ! A34   A(7,12,11)            120.0            estimate D2E/DX2                !
 ! A35   A(7,12,20)            120.0            estimate D2E/DX2                !
 ! A36   A(11,12,20)           120.0            estimate D2E/DX2                !
 ! D1    D(6,1,2,3)              0.0001         estimate D2E/DX2                !
 ! D2    D(6,1,2,21)           180.0            estimate D2E/DX2                !
 ! D3    D(7,1,2,3)           -180.0            estimate D2E/DX2                !
 ! D4    D(7,1,2,21)            -0.0001         estimate D2E/DX2                !
 ! D5    D(2,1,6,5)             -0.0001         estimate D2E/DX2                !
 ! D6    D(2,1,6,15)           180.0            estimate D2E/DX2                !
 ! D7    D(7,1,6,5)            180.0            estimate D2E/DX2                !
 ! D8    D(7,1,6,15)             0.0            estimate D2E/DX2                !
 ! D9    D(2,1,7,8)             -0.0001         estimate D2E/DX2                !
 ! D10   D(2,1,7,12)           179.9998         estimate D2E/DX2                !
 ! D11   D(6,1,7,8)            179.9999         estimate D2E/DX2                !
 ! D12   D(6,1,7,12)            -0.0002         estimate D2E/DX2                !
 ! D13   D(1,2,3,4)              0.0            estimate D2E/DX2                !
 ! D14   D(1,2,3,13)           180.0            estimate D2E/DX2                !
 ! D15   D(21,2,3,4)          -179.9999         estimate D2E/DX2                !
 ! D16   D(21,2,3,13)            0.0001         estimate D2E/DX2                !
 ! D17   D(2,3,4,5)             -0.0001         estimate D2E/DX2                !
 ! D18   D(2,3,4,22)           180.0            estimate D2E/DX2                !
 ! D19   D(13,3,4,5)           179.9999         estimate D2E/DX2                !
 ! D20   D(13,3,4,22)            0.0            estimate D2E/DX2                !
 ! D21   D(3,4,5,6)              0.0001         estimate D2E/DX2                !
 ! D22   D(3,4,5,14)          -179.9999         estimate D2E/DX2                !
 ! D23   D(22,4,5,6)          -180.0            estimate D2E/DX2                !
 ! D24   D(22,4,5,14)            0.0            estimate D2E/DX2                !
 ! D25   D(4,5,6,1)              0.0            estimate D2E/DX2                !
 ! D26   D(4,5,6,15)           179.9999         estimate D2E/DX2                !
 ! D27   D(14,5,6,1)           180.0            estimate D2E/DX2                !
 ! D28   D(14,5,6,15)           -0.0001         estimate D2E/DX2                !
 ! D29   D(1,7,8,9)            179.9999         estimate D2E/DX2                !
 ! D30   D(1,7,8,16)             0.0001         estimate D2E/DX2                !
 ! D31   D(12,7,8,9)             0.0001         estimate D2E/DX2                !
 ! D32   D(12,7,8,16)         -179.9998         estimate D2E/DX2                !
 ! D33   D(1,7,12,11)         -179.9999         estimate D2E/DX2                !
 ! D34   D(1,7,12,20)            0.0            estimate D2E/DX2                !
 ! D35   D(8,7,12,11)           -0.0001         estimate D2E/DX2                !
 ! D36   D(8,7,12,20)          179.9999         estimate D2E/DX2                !
 ! D37   D(7,8,9,10)             0.0            estimate D2E/DX2                !
 ! D38   D(7,8,9,17)           180.0            estimate D2E/DX2                !
 ! D39   D(16,8,9,10)          179.9998         estimate D2E/DX2                !
 ! D40   D(16,8,9,17)           -0.0002         estimate D2E/DX2                !
 ! D41   D(8,9,10,11)            0.0            estimate D2E/DX2                !
 ! D42   D(8,9,10,18)         -179.9999         estimate D2E/DX2                !
 ! D43   D(17,9,10,11)         180.0            estimate D2E/DX2                !
 ! D44   D(17,9,10,18)           0.0001         estimate D2E/DX2                !
 ! D45   D(9,10,11,12)           0.0            estimate D2E/DX2                !
 ! D46   D(9,10,11,19)        -179.9998         estimate D2E/DX2                !
 ! D47   D(18,10,11,12)        179.9999         estimate D2E/DX2                !
 ! D48   D(18,10,11,19)          0.0001         estimate D2E/DX2                !
 ! D49   D(10,11,12,7)           0.0            estimate D2E/DX2                !
 ! D50   D(10,11,12,20)       -179.9999         estimate D2E/DX2                !
 ! D51   D(19,11,12,7)         179.9999         estimate D2E/DX2                !
 ! D52   D(19,11,12,20)         -0.0001         estimate D2E/DX2                !
 --------------------------------------------------------------------------------
 Trust Radius=3.00D-01 FncErr=1.00D-07 GrdErr=1.00D-06 EigMax=2.50D+02 EigMin=1.00D-04
 Number of steps in this run=    121 maximum allowed number of steps=    132.
 GradGradGradGradGradGradGradGradGradGradGradGradGradGradGradGradGradGrad

                          Input orientation:                          
 ---------------------------------------------------------------------
 Center     Atomic      Atomic             Coordinates (Angstroms)
 Number     Number       Type             X           Y           Z
 ---------------------------------------------------------------------
      1          6           0       -1.263170   -2.350694   -0.102346
      2          6           0        0.069211   -2.320808   -0.535693
      3          6           0        0.777104   -1.111357   -0.541765
      4          6           0        0.152617    0.068208   -0.114491
      5          6           0       -1.179765    0.038323    0.318854
      6          6           0       -1.887658   -1.171128    0.324926
      7          6           0       -2.041075   -3.679761   -0.095673
      8          6           0       -1.416588   -4.859326   -0.522948
      9          6           0       -2.124481   -6.068777   -0.516873
     10          6           0       -3.456861   -6.098664   -0.083524
     11          6           0       -4.081348   -4.919099    0.343752
     12          6           0       -3.373455   -3.709647    0.337678
     13          1           0        1.794407   -1.088538   -0.872635
     14          1           0       -1.656575    0.938947    0.645086
     15          1           0       -2.904961   -1.193947    0.655796
     16          1           0       -0.399285   -4.836507   -0.853817
     17          1           0       -1.647671   -6.969401   -0.843107
     18          1           0       -3.997352   -7.022107   -0.078884
     19          1           0       -5.098649   -4.941918    0.674627
     20          1           0       -3.850264   -2.809024    0.663913
     21         17           0        0.853497   -3.802209   -1.072299
     22         17           0        1.041652    1.587142   -0.122116
 ---------------------------------------------------------------------
                    Distance matrix (angstroms):
                    1          2          3          4          5
     1  C    0.000000
     2  C    1.401400   0.000000
     3  C    2.427296   1.401400   0.000000
     4  C    2.802800   2.427296   1.401400   0.000000
     5  C    2.427296   2.802800   2.427296   1.401400   0.000000
     6  C    1.401400   2.427296   2.802800   2.427296   1.401400
     7  C    1.540000   2.548270   3.838989   4.342800   3.838989
     8  C    2.548270   2.941400   4.342800   5.187469   4.975106
     9  C    3.838989   4.342800   5.744200   6.558176   6.235992
    10  C    4.342800   5.187469   6.558176   7.145600   6.558176
    11  C    3.838989   4.975106   6.235992   6.558176   5.744200
    12  C    2.548270   3.813607   4.975106   5.187469   4.342800
    13  H    3.396345   2.146700   1.070000   2.146700   3.396345
    14  H    3.396345   3.872800   3.396345   2.146700   1.070000
    15  H    2.146700   3.396345   3.872800   3.396345   2.146700
    16  H    2.736837   2.578650   3.918930   4.990735   5.074276
    17  H    4.693509   4.965039   6.347206   7.300676   7.118798
    18  H    5.412800   6.232802   7.612271   8.215600   7.612271
    19  H    4.693509   5.919617   7.118798   7.300676   6.347206
    20  H    2.736837   4.127917   5.074276   4.990735   3.918930
    21  Cl   2.743718   1.760000   2.743718   4.048303   4.562800
    22  Cl   4.562800   4.048303   2.743718   1.760000   2.743718
                    6          7          8          9         10
     6  C    0.000000
     7  C    2.548270   0.000000
     8  C    3.813607   1.401400   0.000000
     9  C    4.975106   2.427296   1.401400   0.000000
    10  C    5.187469   2.802800   2.427296   1.401400   0.000000
    11  C    4.342800   2.427296   2.802800   2.427296   1.401400
    12  C    2.941400   1.401400   2.427296   2.802800   2.427296
    13  H    3.872800   4.693509   4.965039   6.347206   7.300676
    14  H    2.146700   4.693509   5.919617   7.118798   7.300676
    15  H    1.070000   2.736837   4.127917   5.074276   4.990735
    16  H    4.127917   2.146700   1.070000   2.146700   3.396345
    17  H    5.919617   3.396345   2.146700   1.070000   2.146700
    18  H    6.232802   3.872800   3.396345   2.146700   1.070000
    19  H    4.965039   3.396345   3.872800   3.396345   2.146700
    20  H    2.578650   2.146700   3.396345   3.872800   3.396345
    21  Cl   4.048303   3.057342   2.563702   3.783409   4.983028
    22  Cl   4.048303   6.102800   6.910901   8.294174   8.905600
                   11         12         13         14         15
    11  C    0.000000
    12  C    1.401400   0.000000
    13  H    7.118798   5.919617   0.000000
    14  H    6.347206   4.965039   4.280590   0.000000
    15  H    3.918930   2.578650   4.942800   2.471400   0.000000
    16  H    3.872800   3.396345   4.342800   6.097816   4.671787
    17  H    3.396345   3.872800   6.814200   8.047159   6.097816
    18  H    2.146700   3.396345   8.329571   8.329571   5.974992
    19  H    1.070000   2.146700   8.047159   6.814200   4.342800
    20  H    2.146700   1.070000   6.097816   4.342800   1.871400
    21  Cl   5.254079   4.456874   2.879094   5.632800   4.890332
    22  Cl   8.294174   6.910901   2.879094   2.879094   4.890332
                   16         17         18         19         20
    16  H    0.000000
    17  H    2.471400   0.000000
    18  H    4.280590   2.471400   0.000000
    19  H    4.942800   4.280590   2.471400   0.000000
    20  H    4.280590   4.942800   4.280590   2.471400   0.000000
    21  Cl   1.639199   4.042212   5.906383   6.307038   5.111382
    22  Cl   6.623817   8.998151   9.975600   8.998151   6.623817
                   21         22
    21  Cl   0.000000
    22  Cl   5.475705   0.000000
 Stoichiometry    C12H8Cl2
 Framework group  C1[X(C12H8Cl2)]
 Deg. of freedom    60
 Full point group                 C1      NOp   1
 Largest Abelian subgroup         C1      NOp   1
 Largest concise Abelian subgroup C1      NOp   1
                         Standard orientation:                         
 ---------------------------------------------------------------------
 Center     Atomic      Atomic             Coordinates (Angstroms)
 Number     Number       Type             X           Y           Z
 ---------------------------------------------------------------------
      1          6           0       -0.057747   -0.390543    0.000002
      2          6           0        0.622166    0.834872    0.000001
      3          6           0        2.023363    0.858757    0.000000
      4          6           0        2.744646   -0.342773   -0.000000
      5          6           0        2.064733   -1.568187    0.000002
      6          6           0        0.663536   -1.592072    0.000003
      7          6           0       -1.597523   -0.416790    0.000002
      8          6           0       -2.318806    0.784739    0.000003
      9          6           0       -3.720003    0.760854    0.000001
     10          6           0       -4.399916   -0.464560   -0.000001
     11          6           0       -3.678633   -1.666089   -0.000003
     12          6           0       -2.277436   -1.642204   -0.000002
     13          1           0        2.542492    1.794388   -0.000000
     14          1           0        2.615449   -2.485581    0.000004
     15          1           0        0.144408   -2.527703    0.000004
     16          1           0       -1.799678    1.720370    0.000002
     17          1           0       -4.270719    1.678248    0.000002
     18          1           0       -5.469761   -0.482797   -0.000004
     19          1           0       -4.197762   -2.601720   -0.000008
     20          1           0       -1.726721   -2.559598   -0.000004
     21         17           0       -0.283684    2.343856   -0.000001
     22         17           0        4.504390   -0.312776   -0.000002
 ---------------------------------------------------------------------
 Rotational constants (GHZ):           1.2772086           0.2945135           0.2393268
 Standard basis: 6-311+G(d,p) (5D, 7F)
 There are   386 symmetry adapted cartesian basis functions of A   symmetry.
 There are   372 symmetry adapted basis functions of A   symmetry.
   372 basis functions,   602 primitive gaussians,   386 cartesian basis functions
    57 alpha electrons       57 beta electrons
       nuclear repulsion energy       977.7914144396 Hartrees.
 NAtoms=   22 NActive=   22 NUniq=   22 SFac= 1.00D+00 NAtFMM=   60 NAOKFM=F Big=F
 Integral buffers will be    131072 words long.
 Raffenetti 2 integral format.
 Two-electron integral symmetry is turned on.
 One-electron integrals computed using PRISM.
 NBasis=   372 RedAO= T EigKep=  1.11D-06  NBF=   372
 NBsUse=   368 1.00D-06 EigRej=  8.77D-07 NBFU=   368
 ExpMin= 4.38D-02 ExpMax= 1.06D+05 ExpMxC= 3.62D+03 IAcc=3 IRadAn=         5 AccDes= 0.00D+00
 Harris functional with IExCor=  402 and IRadAn=       5 diagonalized for initial guess.
 HarFok:  IExCor=  402 AccDes= 0.00D+00 IRadAn=         5 IDoV= 1 UseB2=F ITyADJ=14
 ICtDFT=  3500011 ScaDFX=  1.000000  1.000000  1.000000  1.000000
 FoFCou: FMM=F IPFlag=           0 FMFlag=      100000 FMFlg1=           0
         NFxFlg=           0 DoJE=T BraDBF=F KetDBF=T FulRan=T
         wScrn=  0.000000 ICntrl=       500 IOpCl=  0 I1Cent=   200000004 NGrid=           0
         NMat0=    1 NMatS0=      1 NMatT0=    0 NMatD0=    1 NMtDS0=    0 NMtDT0=    0
 Petite list used in FoFCou.
 Requested convergence on RMS density matrix=1.00D-08 within  32 cycles.
 Requested convergence on MAX density matrix=1.00D-06.
 Requested convergence on             energy=1.00D-06.
 No special actions if energy rises.
 SCF Done:  E(RB3LYP) =  -1382.59990039     A.U. after   15 cycles
            NFock= 15  Conv=0.91D-08     -V/T= 2.0029
 QCSCF skips out because SCF is already converged.

 **********************************************************************

            Population analysis using the SCF Density.

 **********************************************************************

 Orbital symmetries:
       Occupied  (A) (A) (A) (A) (A) (A) (A) (A) (A) (A) (A) (A)
                 (A) (A) (A) (A) (A) (A) (A) (A) (A) (A) (A) (A)
                 (A) (A) (A) (A) (A) (A) (A) (A) (A) (A) (A) (A)
                 (A) (A) (A) (A) (A) (A) (A) (A) (A) (A) (A) (A)
                 (A) (A) (A) (A) (A) (A) (A) (A) (A)
       Virtual   (A) (A) (A) (A) (A) (A) (A) (A) (A) (A) (A) (A)
                 (A) (A) (A) (A) (A) (A) (A) (A) (A) (A) (A) (A)
                 (A) (A) (A) (A) (A) (A) (A) (A) (A) (A) (A) (A)
                 (A) (A) (A) (A) (A) (A) (A) (A) (A) (A) (A) (A)
                 (A) (A) (A) (A) (A) (A) (A) (A) (A) (A) (A) (A)
                 (A) (A) (A) (A) (A) (A) (A) (A) (A) (A) (A) (A)
                 (A) (A) (A) (A) (A) (A) (A) (A) (A) (A) (A) (A)
                 (A) (A) (A) (A) (A) (A) (A) (A) (A) (A) (A) (A)
                 (A) (A) (A) (A) (A) (A) (A) (A) (A) (A) (A) (A)
                 (A) (A) (A) (A) (A) (A) (A) (A) (A) (A) (A) (A)
                 (A) (A) (A) (A) (A) (A) (A) (A) (A) (A) (A) (A)
                 (A) (A) (A) (A) (A) (A) (A) (A) (A) (A) (A) (A)
                 (A) (A) (A) (A) (A) (A) (A) (A) (A) (A) (A) (A)
                 (A) (A) (A) (A) (A) (A) (A) (A) (A) (A) (A) (A)
                 (A) (A) (A) (A) (A) (A) (A) (A) (A) (A) (A) (A)
                 (A) (A) (A) (A) (A) (A) (A) (A) (A) (A) (A) (A)
                 (A) (A) (A) (A) (A) (A) (A) (A) (A) (A) (A) (A)
                 (A) (A) (A) (A) (A) (A) (A) (A) (A) (A) (A) (A)
                 (A) (A) (A) (A) (A) (A) (A) (A) (A) (A) (A) (A)
                 (A) (A) (A) (A) (A) (A) (A) (A) (A) (A) (A) (A)
                 (A) (A) (A) (A) (A) (A) (A) (A) (A) (A) (A) (A)
                 (A) (A) (A) (A) (A) (A) (A) (A) (A) (A) (A) (A)
                 (A) (A) (A) (A) (A) (A) (A) (A) (A) (A) (A) (A)
                 (A) (A) (A) (A) (A) (A) (A) (A) (A) (A) (A) (A)
                 (A) (A) (A) (A) (A) (A) (A) (A) (A) (A) (A) (A)
                 (A) (A) (A) (A) (A) (A) (A) (A) (A) (A) (A)
 The electronic state is 1-A.
 Alpha  occ. eigenvalues -- -101.57005-101.56734 -10.26225 -10.25874 -10.21864
 Alpha  occ. eigenvalues --  -10.21165 -10.20580 -10.20506 -10.20001 -10.18451
 Alpha  occ. eigenvalues --  -10.18282 -10.18024 -10.17791 -10.15992  -9.48794
 Alpha  occ. eigenvalues --   -9.48164  -7.25196  -7.24638  -7.24247  -7.24227
 Alpha  occ. eigenvalues --   -7.23641  -7.23611  -0.92781  -0.89511  -0.86273
 Alpha  occ. eigenvalues --   -0.84573  -0.78426  -0.76699  -0.75344  -0.73149
 Alpha  occ. eigenvalues --   -0.65042  -0.62691  -0.61697  -0.59896  -0.54546
 Alpha  occ. eigenvalues --   -0.52128  -0.50660  -0.49268  -0.47922  -0.45665
 Alpha  occ. eigenvalues --   -0.44882  -0.44271  -0.43940  -0.43116  -0.39998
 Alpha  occ. eigenvalues --   -0.39290  -0.38703  -0.37710  -0.37113  -0.35452
 Alpha  occ. eigenvalues --   -0.34153  -0.33022  -0.29037  -0.27628  -0.27572
 Alpha  occ. eigenvalues --   -0.26026  -0.23927
 Alpha virt. eigenvalues --   -0.05938  -0.04763  -0.02022  -0.01865  -0.00283
 Alpha virt. eigenvalues --    0.00259   0.00896   0.01226   0.01744   0.03008
 Alpha virt. eigenvalues --    0.03617   0.04194   0.04774   0.05445   0.05998
 Alpha virt. eigenvalues --    0.06227   0.06760   0.07045   0.08145   0.08345
 Alpha virt. eigenvalues --    0.08521   0.09743   0.09748   0.10626   0.10924
 Alpha virt. eigenvalues --    0.11102   0.11831   0.11930   0.12574   0.13674
 Alpha virt. eigenvalues --    0.13796   0.13996   0.14395   0.14944   0.15046
 Alpha virt. eigenvalues --    0.15967   0.16034   0.17037   0.17389   0.17488
 Alpha virt. eigenvalues --    0.18386   0.18520   0.19015   0.19083   0.19611
 Alpha virt. eigenvalues --    0.20000   0.20219   0.20342   0.20563   0.20935
 Alpha virt. eigenvalues --    0.20993   0.21890   0.22542   0.22582   0.23482
 Alpha virt. eigenvalues --    0.23525   0.23656   0.24642   0.25674   0.26050
 Alpha virt. eigenvalues --    0.26523   0.27481   0.27847   0.28197   0.28740
 Alpha virt. eigenvalues --    0.29451   0.30153   0.30844   0.31609   0.32470
 Alpha virt. eigenvalues --    0.33532   0.33925   0.34327   0.36010   0.36768
 Alpha virt. eigenvalues --    0.38253   0.39913   0.42295   0.43102   0.44330
 Alpha virt. eigenvalues --    0.44437   0.45170   0.46045   0.46257   0.49627
 Alpha virt. eigenvalues --    0.50147   0.50934   0.52072   0.53012   0.53446
 Alpha virt. eigenvalues --    0.54261   0.54404   0.54937   0.55593   0.56314
 Alpha virt. eigenvalues --    0.57045   0.57049   0.57336   0.58969   0.59688
 Alpha virt. eigenvalues --    0.60012   0.61822   0.62312   0.62328   0.64356
 Alpha virt. eigenvalues --    0.64638   0.65949   0.66558   0.67156   0.67919
 Alpha virt. eigenvalues --    0.67950   0.69214   0.69252   0.70478   0.71819
 Alpha virt. eigenvalues --    0.73955   0.76244   0.76803   0.80152   0.81412
 Alpha virt. eigenvalues --    0.81841   0.82185   0.82598   0.83696   0.84065
 Alpha virt. eigenvalues --    0.84087   0.84377   0.85442   0.85530   0.85841
 Alpha virt. eigenvalues --    0.86930   0.88545   0.89838   0.90550   0.91605
 Alpha virt. eigenvalues --    0.92043   0.93826   0.94460   0.94936   0.95483
 Alpha virt. eigenvalues --    0.95675   0.96521   0.97066   0.99549   1.00939
 Alpha virt. eigenvalues --    1.01209   1.01946   1.02844   1.06963   1.07096
 Alpha virt. eigenvalues --    1.07559   1.07991   1.08692   1.10621   1.12644
 Alpha virt. eigenvalues --    1.14128   1.14503   1.15090   1.19975   1.22415
 Alpha virt. eigenvalues --    1.23287   1.24946   1.30171   1.30630   1.32947
 Alpha virt. eigenvalues --    1.34560   1.36998   1.45352   1.46218   1.46921
 Alpha virt. eigenvalues --    1.50727   1.51875   1.53084   1.53725   1.54388
 Alpha virt. eigenvalues --    1.55927   1.56221   1.56487   1.58162   1.60469
 Alpha virt. eigenvalues --    1.60797   1.63805   1.65098   1.65557   1.67844
 Alpha virt. eigenvalues --    1.69315   1.72072   1.73057   1.74921   1.76611
 Alpha virt. eigenvalues --    1.78261   1.80163   1.84433   1.84769   1.87311
 Alpha virt. eigenvalues --    1.87372   1.88525   1.88708   1.91908   1.94436
 Alpha virt. eigenvalues --    1.94804   1.94865   1.95843   1.96448   1.97077
 Alpha virt. eigenvalues --    1.98220   2.00014   2.00021   2.04354   2.04721
 Alpha virt. eigenvalues --    2.07253   2.08161   2.08764   2.09772   2.18040
 Alpha virt. eigenvalues --    2.20801   2.25371   2.25965   2.27105   2.27439
 Alpha virt. eigenvalues --    2.27530   2.35180   2.36229   2.37102   2.38230
 Alpha virt. eigenvalues --    2.40134   2.41073   2.43296   2.44688   2.50007
 Alpha virt. eigenvalues --    2.52240   2.53298   2.55408   2.58130   2.61983
 Alpha virt. eigenvalues --    2.62186   2.65014   2.65696   2.67114   2.69444
 Alpha virt. eigenvalues --    2.70052   2.71499   2.73226   2.74068   2.74208
 Alpha virt. eigenvalues --    2.74600   2.75931   2.76294   2.77834   2.78881
 Alpha virt. eigenvalues --    2.80183   2.82215   2.83560   2.84936   2.86219
 Alpha virt. eigenvalues --    2.86747   2.92576   2.94082   2.94231   2.98170
 Alpha virt. eigenvalues --    3.05866   3.08147   3.09463   3.12734   3.14950
 Alpha virt. eigenvalues --    3.19983   3.21779   3.24371   3.33062   3.36453
 Alpha virt. eigenvalues --    3.37651   3.41279   3.51499   3.53183   3.53833
 Alpha virt. eigenvalues --    3.57534   3.65785   3.68343   3.79388   3.85357
 Alpha virt. eigenvalues --    4.03218   4.05289   4.07279   4.13848   4.18829
 Alpha virt. eigenvalues --    4.22355   4.47933   4.80346   4.84943   9.76882
 Alpha virt. eigenvalues --    9.86926  23.46075  23.66713  23.83202  23.90379
 Alpha virt. eigenvalues --   23.93645  23.97884  24.00016  24.03308  24.06554
 Alpha virt. eigenvalues --   24.08931  24.11371  24.18022  25.81848  25.84388
 Alpha virt. eigenvalues --   26.11320  26.58168  26.67425  26.80535 215.75953
 Alpha virt. eigenvalues --  215.89126
          Condensed to atoms (all electrons):
               1          2          3          4          5          6
     1  C   14.277840  -0.323586  -3.551566  -3.998188   1.421631  -3.239504
     2  C   -0.323586  19.151246   1.315023  -4.614414  -4.427726  -1.834303
     3  C   -3.551566   1.315023  15.284369   2.110208  -2.890064  -3.352402
     4  C   -3.998188  -4.614414   2.110208  15.224101  -0.179303  -0.590672
     5  C    1.421631  -4.427726  -2.890064  -0.179303  14.088586  -0.704597
     6  C   -3.239504  -1.834303  -3.352402  -0.590672  -0.704597  15.630281
     7  C    4.196663  -2.038473  -3.562047  -1.189584  -0.447919  -0.320546
     8  C   -0.487502   4.257550   2.520036   0.061974  -0.327267  -3.888576
     9  C   -0.082221  -0.804589   0.457127  -0.093819   0.269228  -0.476547
    10  C   -0.319438   0.099998   0.030706   0.000998  -0.028602   0.044439
    11  C   -0.207038   0.148247  -0.011038  -0.178860  -0.223875  -0.984800
    12  C   -1.627146  -3.762049  -1.875528  -0.074301   0.020711   4.727239
    13  H    0.074883  -0.058304   0.314056   0.001200   0.027033  -0.002861
    14  H    0.016062   0.014085   0.014658   0.055800   0.310178  -0.072463
    15  H    0.052513  -0.044797  -0.031434  -0.027626  -0.082988   0.337255
    16  H   -0.116413   0.161373   0.197158   0.043784  -0.002815  -0.051291
    17  H    0.009455  -0.005641  -0.002979  -0.000380   0.000117   0.001825
    18  H    0.006789  -0.002063  -0.000129  -0.000005   0.000381   0.003308
    19  H   -0.000087   0.001789   0.000061   0.000082  -0.000082   0.004984
    20  H    0.052461   0.001730   0.003547   0.000235   0.033930   0.026826
    21  Cl   0.244567  -1.026692  -0.751932  -0.352441  -0.026295   0.662696
    22  Cl  -0.301393   0.030814   0.188745  -0.905708  -0.045239   0.322011
               7          8          9         10         11         12
     1  C    4.196663  -0.487502  -0.082221  -0.319438  -0.207038  -1.627146
     2  C   -2.038473   4.257550  -0.804589   0.099998   0.148247  -3.762049
     3  C   -3.562047   2.520036   0.457127   0.030706  -0.011038  -1.875528
     4  C   -1.189584   0.061974  -0.093819   0.000998  -0.178860  -0.074301
     5  C   -0.447919  -0.327267   0.269228  -0.028602  -0.223875   0.020711
     6  C   -0.320546  -3.888576  -0.476547   0.044439  -0.984800   4.727239
     7  C   12.372163  -3.069578  -0.223501  -0.913590  -0.362358   0.069922
     8  C   -3.069578  15.783894  -3.158826  -0.099904   1.453406  -5.831598
     9  C   -0.223501  -3.158826  11.186802   0.546393  -0.752173  -0.162906
    10  C   -0.913590  -0.099904   0.546393   5.556950   0.760133   0.149965
    11  C   -0.362358   1.453406  -0.752173   0.760133   8.195422  -1.745781
    12  C    0.069922  -5.831598  -0.162906   0.149965  -1.745781  15.596109
    13  H    0.013762  -0.000553  -0.001369   0.000000   0.000469   0.002644
    14  H    0.005087  -0.002104  -0.000104   0.000140  -0.000275   0.013470
    15  H    0.038665   0.008803   0.001772  -0.000146   0.026413   0.045642
    16  H   -0.401084   0.569212   0.198784   0.015120  -0.030202  -0.100521
    17  H    0.069338  -0.021644   0.351625  -0.037395  -0.009184  -0.007246
    18  H    0.029568  -0.000981  -0.046372   0.384235  -0.033070   0.004845
    19  H    0.035574  -0.008702  -0.001999  -0.006267   0.376447  -0.052478
    20  H    0.052220  -0.030196   0.002658  -0.016861  -0.144623   0.336514
    21  Cl   1.271035  -1.358953  -0.854528  -0.022580   0.045380   0.598975
    22  Cl  -0.039751  -0.024951  -0.006535  -0.000274  -0.003051  -0.013562
              13         14         15         16         17         18
     1  C    0.074883   0.016062   0.052513  -0.116413   0.009455   0.006789
     2  C   -0.058304   0.014085  -0.044797   0.161373  -0.005641  -0.002063
     3  C    0.314056   0.014658  -0.031434   0.197158  -0.002979  -0.000129
     4  C    0.001200   0.055800  -0.027626   0.043784  -0.000380  -0.000005
     5  C    0.027033   0.310178  -0.082988  -0.002815   0.000117   0.000381
     6  C   -0.002861  -0.072463   0.337255  -0.051291   0.001825   0.003308
     7  C    0.013762   0.005087   0.038665  -0.401084   0.069338   0.029568
     8  C   -0.000553  -0.002104   0.008803   0.569212  -0.021644  -0.000981
     9  C   -0.001369  -0.000104   0.001772   0.198784   0.351625  -0.046372
    10  C    0.000000   0.000140  -0.000146   0.015120  -0.037395   0.384235
    11  C    0.000469  -0.000275   0.026413  -0.030202  -0.009184  -0.033070
    12  C    0.002644   0.013470   0.045642  -0.100521  -0.007246   0.004845
    13  H    0.495849  -0.000290   0.000070   0.000021   0.000000  -0.000000
    14  H   -0.000290   0.514571  -0.007687  -0.000002   0.000000  -0.000000
    15  H    0.000070  -0.007687   0.548552  -0.000078   0.000001  -0.000002
    16  H    0.000021  -0.000002  -0.000078   0.726896  -0.014133  -0.000582
    17  H    0.000000   0.000000   0.000001  -0.014133   0.550200  -0.006910
    18  H   -0.000000  -0.000000  -0.000002  -0.000582  -0.006910   0.543595
    19  H    0.000000   0.000000  -0.000005   0.000151  -0.000327  -0.007540
    20  H    0.000000   0.000053   0.001465  -0.000214   0.000108  -0.000283
    21  Cl  -0.019285   0.000950   0.000072  -0.315746   0.003346   0.000856
    22  Cl  -0.010321  -0.011358  -0.000061   0.000208  -0.000001   0.000000
              19         20         21         22
     1  C   -0.000087   0.052461   0.244567  -0.301393
     2  C    0.001789   0.001730  -1.026692   0.030814
     3  C    0.000061   0.003547  -0.751932   0.188745
     4  C    0.000082   0.000235  -0.352441  -0.905708
     5  C   -0.000082   0.033930  -0.026295  -0.045239
     6  C    0.004984   0.026826   0.662696   0.322011
     7  C    0.035574   0.052220   1.271035  -0.039751
     8  C   -0.008702  -0.030196  -1.358953  -0.024951
     9  C   -0.001999   0.002658  -0.854528  -0.006535
    10  C   -0.006267  -0.016861  -0.022580  -0.000274
    11  C    0.376447  -0.144623   0.045380  -0.003051
    12  C   -0.052478   0.336514   0.598975  -0.013562
    13  H    0.000000   0.000000  -0.019285  -0.010321
    14  H    0.000000   0.000053   0.000950  -0.011358
    15  H   -0.000005   0.001465   0.000072  -0.000061
    16  H    0.000151  -0.000214  -0.315746   0.000208
    17  H   -0.000327   0.000108   0.003346  -0.000001
    18  H   -0.007540  -0.000283   0.000856   0.000000
    19  H    0.541268  -0.007451  -0.000265  -0.000000
    20  H   -0.007451   0.575117  -0.000343   0.000017
    21  Cl  -0.000265  -0.000343  18.267315  -0.011589
    22  Cl  -0.000000   0.000017  -0.011589  17.406258
 Mulliken charges:
               1
     1  C   -0.098783
     2  C   -0.239218
     3  C   -0.406574
     4  C    0.706917
     5  C   -0.785024
     6  C   -0.242301
     7  C    0.414435
     8  C   -0.343541
     9  C   -0.348900
    10  C   -0.144019
    11  C   -0.319589
    12  C   -0.312921
    13  H    0.162995
    14  H    0.149230
    15  H    0.133601
    16  H    0.120374
    17  H    0.119825
    18  H    0.124359
    19  H    0.124848
    20  H    0.113089
    21  Cl   0.645455
    22  Cl   0.425741
 Sum of Mulliken charges =  -0.00000
 Mulliken charges with hydrogens summed into heavy atoms:
               1
     1  C   -0.098783
     2  C   -0.239218
     3  C   -0.243580
     4  C    0.706917
     5  C   -0.635793
     6  C   -0.108701
     7  C    0.414435
     8  C   -0.223166
     9  C   -0.229074
    10  C   -0.019660
    11  C   -0.194741
    12  C   -0.199831
    21  Cl   0.645455
    22  Cl   0.425741
 Electronic spatial extent (au):  <R**2>=           4151.4412
 Charge=             -0.0000 electrons
 Dipole moment (field-independent basis, Debye):
    X=             -1.0208    Y=             -1.0176    Z=             -0.0000  Tot=              1.4414
 Quadrupole moment (field-independent basis, Debye-Ang):
   XX=            -94.6178   YY=            -86.7343   ZZ=           -101.0924
   XY=             -0.2689   XZ=              0.0000   YZ=              0.0000
 Traceless Quadrupole moment (field-independent basis, Debye-Ang):
   XX=             -0.4697   YY=              7.4139   ZZ=             -6.9442
   XY=             -0.2689   XZ=              0.0000   YZ=              0.0000
 Octapole moment (field-independent basis, Debye-Ang**2):
  XXX=            -34.7412  YYY=             -5.1857  ZZZ=             -0.0000  XYY=             -0.7739
  XXY=              5.9198  XXZ=             -0.0001  XZZ=             14.3959  YZZ=              6.8011
  YYZ=             -0.0000  XYZ=             -0.0001
 Hexadecapole moment (field-independent basis, Debye-Ang**3):
 XXXX=          -4282.6818 YYYY=          -1037.8231 ZZZZ=           -120.2252 XXXY=             11.0706
 XXXZ=              0.0007 YYYX=            -20.5730 YYYZ=              0.0000 ZZZX=             -0.0000
 ZZZY=             -0.0000 XXYY=           -857.9842 XXZZ=           -821.5642 YYZZ=           -219.2267
 XXYZ=              0.0003 YYXZ=              0.0002 ZZXY=             -7.6238
 N-N= 9.777914144396D+02 E-N=-5.215117853449D+03  KE= 1.378626446481D+03
 Calling FoFJK, ICntrl=      2127 FMM=F ISym2X=0 I1Cent= 0 IOpClX= 0 NMat=1 NMatS=1 NMatT=0.
 ***** Axes restored to original set *****
 -------------------------------------------------------------------
 Center     Atomic                   Forces (Hartrees/Bohr)
 Number     Number              X              Y              Z
 -------------------------------------------------------------------
      1        6          -0.020524817   -0.040035538   -0.000757148
      2        6          -0.007655001    0.018602007    0.006015718
      3        6          -0.004380872   -0.000627184    0.001325630
      4        6          -0.006881497   -0.012768009   -0.000131059
      5        6           0.002074630   -0.010473167   -0.002650392
      6        6           0.027906442    0.011135156   -0.007102580
      7        6           0.013476641    0.025573531    0.000363135
      8        6          -0.042750087   -0.030952679    0.008271050
      9        6          -0.015337096    0.017156504    0.008274990
     10        6           0.008490666    0.009924299   -0.000933387
     11        6           0.016264497    0.003761486   -0.004651868
     12        6           0.001111707   -0.019136427   -0.003960339
     13        1           0.008302336   -0.000010055   -0.002737123
     14        1          -0.003439568    0.007995521    0.002634859
     15        1          -0.005507999    0.002463266    0.002277206
     16        1          -0.043106553   -0.027878237    0.008965634
     17        1           0.004747123   -0.008436099   -0.003148319
     18        1          -0.005800532   -0.008607006    0.000294505
     19        1          -0.009368471    0.000116836    0.003108380
     20        1          -0.006468680    0.004228172    0.002925242
     21       17           0.090423700    0.062049721   -0.018136891
     22       17          -0.001576570   -0.004082096   -0.000247243
 -------------------------------------------------------------------
 Cartesian Forces:  Max     0.090423700 RMS     0.019299321

 GradGradGradGradGradGradGradGradGradGradGradGradGradGradGradGradGradGrad
 Berny optimization.
 FormGI is forming the generalized inverse of G from B-inverse, IUseBI=4.
 Internal  Forces:  Max     0.284579287 RMS     0.051867974
 Search for a local minimum.
 Step number   1 out of a maximum of  121
 All quantities printed in internal units (Hartrees-Bohrs-Radians)
 Mixed Optimization -- RFO/linear search
 Second derivative matrix not updated -- first step.
 ITU=  0
     Eigenvalues ---    0.00237   0.01506   0.01506   0.02070   0.02070
     Eigenvalues ---    0.02070   0.02070   0.02070   0.02070   0.02070
     Eigenvalues ---    0.02070   0.02070   0.02070   0.02070   0.02070
     Eigenvalues ---    0.02070   0.02070   0.02070   0.02070   0.16000
     Eigenvalues ---    0.16000   0.16000   0.16000   0.16000   0.16000
     Eigenvalues ---    0.16000   0.16000   0.22000   0.22000   0.22375
     Eigenvalues ---    0.23485   0.23491   0.24610   0.25000   0.25000
     Eigenvalues ---    0.25000   0.25000   0.28519   0.29539   0.29539
     Eigenvalues ---    0.37230   0.37230   0.37230   0.37230   0.37230
     Eigenvalues ---    0.37230   0.37230   0.37230   0.41268   0.41393
     Eigenvalues ---    0.41459   0.41697   0.45389   0.45389   0.45389
     Eigenvalues ---    0.45389   0.45389   0.45389   0.45389   0.45389
 RFO step:  Lambda=-4.31254681D-01 EMin= 2.36824176D-03
 Linear search not attempted -- first point.
 Maximum step size (   0.300) exceeded in Quadratic search.
    -- Step size scaled by   0.379
 Iteration  1 RMS(Cart)=  0.19501766 RMS(Int)=  0.00973657
 Iteration  2 RMS(Cart)=  0.03359689 RMS(Int)=  0.00026919
 Iteration  3 RMS(Cart)=  0.00051053 RMS(Int)=  0.00004770
 Iteration  4 RMS(Cart)=  0.00000015 RMS(Int)=  0.00004770
 Variable       Old X    -DE/DX   Delta X   Delta X   Delta X     New X
                                 (Linear)    (Quad)   (Total)
    R1        2.64826   0.12261   0.00000   0.05378   0.05386   2.70212
    R2        2.64826   0.02052   0.00000   0.00946   0.00957   2.65783
    R3        2.91018   0.06942   0.00000   0.03676   0.03676   2.94694
    R4        2.64826   0.00320   0.00000   0.00193   0.00190   2.65016
    R5        3.32592  -0.00640   0.00000  -0.00334  -0.00334   3.32257
    R6        2.64826  -0.03254   0.00000  -0.01461  -0.01472   2.63354
    R7        2.02201   0.00874   0.00000   0.00413   0.00413   2.02613
    R8        2.64826  -0.04259   0.00000  -0.01948  -0.01955   2.62871
    R9        3.32592  -0.00432   0.00000  -0.00225  -0.00225   3.32366
   R10        2.64826  -0.02341   0.00000  -0.01059  -0.01056   2.63770
   R11        2.02201   0.00907   0.00000   0.00428   0.00428   2.02629
   R12        2.02201   0.00589   0.00000   0.00278   0.00278   2.02479
   R13        2.64826   0.01802   0.00000   0.00805   0.00809   2.65635
   R14        2.64826   0.01819   0.00000   0.00803   0.00807   2.65633
   R15        2.64826   0.00049   0.00000   0.00030   0.00030   2.64856
   R16        2.02201  -0.04435   0.00000  -0.02094  -0.02094   2.00106
   R17        2.64826  -0.02300   0.00000  -0.01009  -0.01013   2.63813
   R18        2.02201   0.01018   0.00000   0.00481   0.00481   2.02681
   R19        2.64826  -0.02535   0.00000  -0.01119  -0.01123   2.63703
   R20        2.02201   0.01036   0.00000   0.00489   0.00489   2.02690
   R21        2.64826  -0.01198   0.00000  -0.00523  -0.00523   2.64304
   R22        2.02201   0.00987   0.00000   0.00466   0.00466   2.02667
   R23        2.02201   0.00733   0.00000   0.00346   0.00346   2.02547
    A1        2.09440  -0.08125   0.00000  -0.04314  -0.04294   2.05145
    A2        2.09440   0.28458   0.00000   0.15744   0.15735   2.25174
    A3        2.09440  -0.20333   0.00000  -0.11431  -0.11440   1.97999
    A4        2.09440  -0.01207   0.00000  -0.00476  -0.00470   2.08969
    A5        2.09440   0.19058   0.00000   0.10516   0.10514   2.19953
    A6        2.09440  -0.17850   0.00000  -0.10041  -0.10043   1.99396
    A7        2.09440   0.03569   0.00000   0.02024   0.02010   2.11450
    A8        2.09440  -0.01805   0.00000  -0.01025  -0.01018   2.08421
    A9        2.09440  -0.01764   0.00000  -0.00999  -0.00992   2.08447
   A10        2.09440  -0.00204   0.00000  -0.00401  -0.00420   2.09019
   A11        2.09440  -0.00023   0.00000   0.00131   0.00141   2.09580
   A12        2.09440   0.00226   0.00000   0.00270   0.00280   2.09719
   A13        2.09440  -0.00189   0.00000  -0.00396  -0.00401   2.09038
   A14        2.09440   0.00022   0.00000   0.00152   0.00154   2.09594
   A15        2.09440   0.00167   0.00000   0.00244   0.00247   2.09686
   A16        2.09440   0.06156   0.00000   0.03562   0.03576   2.13015
   A17        2.09440  -0.02812   0.00000  -0.01610  -0.01617   2.07822
   A18        2.09440  -0.03344   0.00000  -0.01952  -0.01959   2.07481
   A19        2.09440   0.19642   0.00000   0.10916   0.10911   2.20351
   A20        2.09440  -0.13384   0.00000  -0.07479  -0.07483   2.01957
   A21        2.09440  -0.06258   0.00000  -0.03437  -0.03428   2.06011
   A22        2.09440   0.02048   0.00000   0.01225   0.01229   2.10668
   A23        2.09440   0.01743   0.00000   0.01163   0.01161   2.10601
   A24        2.09440  -0.03790   0.00000  -0.02388  -0.02390   2.07050
   A25        2.09440   0.01475   0.00000   0.00814   0.00809   2.10249
   A26        2.09440  -0.00763   0.00000  -0.00423  -0.00421   2.09019
   A27        2.09440  -0.00712   0.00000  -0.00391  -0.00388   2.09051
   A28        2.09440  -0.01378   0.00000  -0.00906  -0.00915   2.08525
   A29        2.09440   0.00760   0.00000   0.00499   0.00503   2.09943
   A30        2.09440   0.00618   0.00000   0.00407   0.00412   2.09851
   A31        2.09440   0.00228   0.00000   0.00049   0.00045   2.09484
   A32        2.09440  -0.00081   0.00000  -0.00003  -0.00001   2.09439
   A33        2.09440  -0.00148   0.00000  -0.00046  -0.00044   2.09396
   A34        2.09440   0.03885   0.00000   0.02256   0.02261   2.11700
   A35        2.09440  -0.01558   0.00000  -0.00881  -0.00883   2.08556
   A36        2.09440  -0.02328   0.00000  -0.01375  -0.01377   2.08062
    D1        0.00000  -0.00000   0.00000  -0.00000  -0.00000   0.00000
    D2        3.14159  -0.00000   0.00000  -0.00000  -0.00000   3.14159
    D3       -3.14159  -0.00000   0.00000  -0.00000  -0.00000  -3.14159
    D4       -0.00000  -0.00000   0.00000  -0.00000  -0.00000  -0.00000
    D5       -0.00000   0.00000   0.00000   0.00000   0.00000  -0.00000
    D6        3.14159   0.00000   0.00000   0.00000   0.00000   3.14159
    D7        3.14159  -0.00000   0.00000  -0.00000  -0.00000   3.14159
    D8        0.00000  -0.00000   0.00000  -0.00000  -0.00000   0.00000
    D9       -0.00000  -0.00000   0.00000  -0.00000  -0.00000  -0.00000
   D10        3.14159  -0.00000   0.00000  -0.00000  -0.00000   3.14159
   D11        3.14159  -0.00000   0.00000  -0.00000  -0.00000   3.14159
   D12       -0.00000  -0.00000   0.00000  -0.00000  -0.00000  -0.00000
   D13        0.00000  -0.00000   0.00000   0.00000   0.00000   0.00000
   D14        3.14159   0.00000   0.00000   0.00000   0.00000   3.14159
   D15       -3.14159  -0.00000   0.00000  -0.00000  -0.00000  -3.14159
   D16        0.00000  -0.00000   0.00000  -0.00000  -0.00000   0.00000
   D17       -0.00000   0.00000   0.00000   0.00000   0.00000  -0.00000
   D18        3.14159  -0.00000   0.00000  -0.00000  -0.00000   3.14159
   D19        3.14159  -0.00000   0.00000  -0.00000  -0.00000   3.14159
   D20        0.00000  -0.00000   0.00000  -0.00000  -0.00000   0.00000
   D21        0.00000  -0.00000   0.00000  -0.00000  -0.00000   0.00000
   D22       -3.14159  -0.00000   0.00000  -0.00000  -0.00000  -3.14159
   D23       -3.14159  -0.00000   0.00000  -0.00000  -0.00000  -3.14159
   D24        0.00000  -0.00000   0.00000  -0.00000  -0.00000   0.00000
   D25       -0.00000   0.00000   0.00000   0.00000   0.00000  -0.00000
   D26        3.14159   0.00000   0.00000   0.00000   0.00000   3.14159
   D27        3.14159   0.00000   0.00000   0.00000   0.00000   3.14159
   D28       -0.00000   0.00000   0.00000   0.00000   0.00000  -0.00000
   D29        3.14159  -0.00000   0.00000   0.00000   0.00000   3.14159
   D30        0.00000  -0.00000   0.00000  -0.00000  -0.00000   0.00000
   D31        0.00000  -0.00000   0.00000  -0.00000  -0.00000   0.00000
   D32       -3.14159  -0.00000   0.00000  -0.00000  -0.00000  -3.14159
   D33       -3.14159  -0.00000   0.00000  -0.00000  -0.00000  -3.14159
   D34        0.00000  -0.00000   0.00000  -0.00000  -0.00000   0.00000
   D35       -0.00000   0.00000   0.00000   0.00000   0.00000  -0.00000
   D36        3.14159   0.00000   0.00000   0.00000   0.00000   3.14159
   D37       -0.00000  -0.00000   0.00000  -0.00000  -0.00000  -0.00000
   D38        3.14159  -0.00000   0.00000  -0.00000  -0.00000   3.14159
   D39        3.14159   0.00000   0.00000   0.00000   0.00000   3.14159
   D40       -0.00000   0.00000   0.00000   0.00000   0.00000  -0.00000
   D41       -0.00000   0.00000   0.00000   0.00000   0.00000  -0.00000
   D42       -3.14159  -0.00000   0.00000  -0.00000  -0.00000  -3.14159
   D43        3.14159   0.00000   0.00000   0.00000   0.00000   3.14159
   D44        0.00000  -0.00000   0.00000  -0.00000  -0.00000   0.00000
   D45        0.00000   0.00000   0.00000   0.00000   0.00000   0.00000
   D46       -3.14159  -0.00000   0.00000  -0.00000  -0.00000  -3.14159
   D47        3.14159   0.00000   0.00000   0.00000   0.00000   3.14159
   D48        0.00000  -0.00000   0.00000  -0.00000  -0.00000   0.00000
   D49        0.00000  -0.00000   0.00000  -0.00000  -0.00000   0.00000
   D50       -3.14159  -0.00000   0.00000  -0.00000  -0.00000  -3.14159
   D51        3.14159   0.00000   0.00000   0.00000   0.00000   3.14159
   D52       -0.00000  -0.00000   0.00000   0.00000   0.00000  -0.00000
         Item               Value     Threshold  Converged?
 Maximum Force            0.284579     0.000450     NO 
 RMS     Force            0.051868     0.000300     NO 
 Maximum Displacement     0.972058     0.001800     NO 
 RMS     Displacement     0.223802     0.001200     NO 
 Predicted change in Energy=-1.519942D-01
 GradGradGradGradGradGradGradGradGradGradGradGradGradGradGradGradGradGrad

                          Input orientation:                          
 ---------------------------------------------------------------------
 Center     Atomic      Atomic             Coordinates (Angstroms)
 Number     Number       Type             X           Y           Z
 ---------------------------------------------------------------------
      1          6           0       -1.093331   -2.458256   -0.178502
      2          6           0        0.260978   -2.244847   -0.584605
      3          6           0        0.810484   -0.956027   -0.523590
      4          6           0        0.059016    0.127478   -0.072522
      5          6           0       -1.259813   -0.064966    0.325828
      6          6           0       -1.821083   -1.341781    0.270943
      7          6           0       -1.914495   -3.783822   -0.156919
      8          6           0       -1.453996   -5.053338   -0.547061
      9          6           0       -2.295920   -6.171818   -0.479744
     10          6           0       -3.608819   -6.042969   -0.023000
     11          6           0       -4.079934   -4.788908    0.367737
     12          6           0       -3.239136   -3.673254    0.300261
     13          1           0        1.826498   -0.801722   -0.829340
     14          1           0       -1.842824    0.764965    0.673771
     15          1           0       -2.838119   -1.473731    0.581229
     16          1           0       -0.463518   -5.184216   -0.897959
     17          1           0       -1.928803   -7.133402   -0.781289
     18          1           0       -4.250705   -6.900811    0.027364
     19          1           0       -5.087078   -4.680319    0.719946
     20          1           0       -3.614514   -2.716248    0.603668
     21         17           0        1.367888   -3.474246   -1.180173
     22         17           0        0.776557    1.731946   -0.007584
 ---------------------------------------------------------------------
                    Distance matrix (angstroms):
                    1          2          3          4          5
     1  C    0.000000
     2  C    1.429901   0.000000
     3  C    2.449549   1.402404   0.000000
     4  C    2.832871   2.435353   1.393610   0.000000
     5  C    2.451510   2.809550   2.408657   1.391052   0.000000
     6  C    1.406464   2.425380   2.775830   2.410697   1.395813
     7  C    1.559455   2.698897   3.944158   4.381796   3.806775
     8  C    2.645820   3.290922   4.681493   5.418048   5.067888
     9  C    3.915037   4.687199   6.070927   6.737410   6.246288
    10  C    4.382012   5.451281   6.757056   7.178432   6.432420
    11  C    3.827547   5.120813   6.277072   6.441707   5.501860
    12  C    2.511954   3.882542   4.945854   5.046022   4.115594
    13  H    3.419517   2.143212   1.072184   2.135458   3.376764
    14  H    3.417201   3.881812   3.381646   2.140173   1.072265
    15  H    2.142608   3.399734   3.847200   3.374115   2.130938
    16  H    2.888796   3.043514   4.431796   5.400785   5.323388
    17  H    4.787312   5.360205   6.762401   7.561359   7.185822
    18  H    5.454144   6.512127   7.826854   8.245030   7.467482
    19  H    4.657767   6.019559   7.085053   7.086974   6.008725
    20  H    2.652304   4.080889   4.893843   4.694554   3.556840
    21  Cl   2.844852   1.758231   2.661434   3.989042   4.560268
    22  Cl   4.591676   4.051377   2.737264   1.758807   2.736213
                    6          7          8          9         10
     6  C    0.000000
     7  C    2.480998   0.000000
     8  C    3.818316   1.405682   0.000000
     9  C    4.911035   2.439719   1.401559   0.000000
    10  C    5.038211   2.827086   2.428430   1.396038   0.000000
    11  C    4.122434   2.444297   2.793265   2.411093   1.395455
    12  C    2.729011   1.405671   2.410251   2.782245   2.420065
    13  H    3.848004   4.831159   5.377505   6.778974   7.593650
    14  H    2.145023   4.624569   5.957706   7.046620   7.067687
    15  H    1.071471   2.595084   4.000303   4.846821   4.673009
    16  H    4.239531   2.148391   1.058918   2.123196   3.375786
    17  H    5.887416   3.407306   2.146386   1.072543   2.141612
    18  H    6.071673   3.899674   3.400691   2.147038   1.072589
    19  H    4.691926   3.411434   3.865713   3.384433   2.143369
    20  H    2.283914   2.146688   3.384376   3.854016   3.385235
    21  Cl   4.101546   3.452090   3.295056   4.603367   5.718829
    22  Cl   4.033994   6.139036   7.162854   8.493088   8.926425
                   11         12         13         14         15
    11  C    0.000000
    12  C    1.398635   0.000000
    13  H    7.226105   5.931470   0.000000
    14  H    5.995317   4.667653   4.263541   0.000000
    15  H    3.546560   2.253366   4.919345   2.451721   0.000000
    16  H    3.851847   3.379763   4.945213   6.305996   4.646981
    17  H    3.382940   3.854783   7.361709   8.031737   5.891960
    18  H    2.145962   3.393357   8.652469   8.061008   5.635190
    19  H    1.072465   2.145975   8.077211   6.338646   3.919091
    20  H    2.137334   1.071832   5.943361   3.906744   1.465313
    21  Cl   5.814046   4.843135   2.734190   5.631758   4.979468
    22  Cl   8.139282   6.740678   2.863064   2.874101   4.867129
                   16         17         18         19         20
    16  H    0.000000
    17  H    2.441311   0.000000
    18  H    4.259778   2.469665   0.000000
    19  H    4.924311   4.271537   2.471796   0.000000
    20  H    4.274872   4.926559   4.271701   2.457548   0.000000
    21  Cl   2.521446   4.941326   6.690895   6.836056   5.346119
    22  Cl   7.082645   9.301183   9.989949   8.719442   6.280252
                   21         22
    21  Cl   0.000000
    22  Cl   5.369272   0.000000
 Stoichiometry    C12H8Cl2
 Framework group  C1[X(C12H8Cl2)]
 Deg. of freedom    60
 Full point group                 C1      NOp   1
 Largest Abelian subgroup         C1      NOp   1
 Largest concise Abelian subgroup C1      NOp   1
                         Standard orientation:                         
 ---------------------------------------------------------------------
 Center     Atomic      Atomic             Coordinates (Angstroms)
 Number     Number       Type             X           Y           Z
 ---------------------------------------------------------------------
      1          6           0       -0.137490   -0.187044    0.000002
      2          6           0        0.716896    0.959534    0.000001
      3          6           0        2.108961    0.789557    0.000000
      4          6           0        2.680017   -0.481680   -0.000000
      5          6           0        1.861384   -1.606342    0.000003
      6          6           0        0.473948   -1.453647    0.000003
      7          6           0       -1.695663   -0.250260    0.000002
      8          6           0       -2.572158    0.848692    0.000003
      9          6           0       -3.960513    0.656759    0.000002
     10          6           0       -4.496837   -0.632147   -0.000001
     11          6           0       -3.639023   -1.732805   -0.000003
     12          6           0       -2.253682   -1.540425   -0.000002
     13          1           0        2.744888    1.652792   -0.000000
     14          1           0        2.295136   -2.586961    0.000004
     15          1           0       -0.143044   -2.329645    0.000004
     16          1           0       -2.196824    1.838859    0.000003
     17          1           0       -4.615362    1.506183    0.000003
     18          1           0       -5.559765   -0.775779   -0.000004
     19          1           0       -4.041970   -2.726694   -0.000008
     20          1           0       -1.606894   -2.395112   -0.000004
     21         17           0        0.194509    2.638369   -0.000002
     22         17           0        4.429538   -0.662179   -0.000002
 ---------------------------------------------------------------------
 Rotational constants (GHZ):           1.1110261           0.2920448           0.2312566
 Standard basis: 6-311+G(d,p) (5D, 7F)
 There are   386 symmetry adapted cartesian basis functions of A   symmetry.
 There are   372 symmetry adapted basis functions of A   symmetry.
   372 basis functions,   602 primitive gaussians,   386 cartesian basis functions
    57 alpha electrons       57 beta electrons
       nuclear repulsion energy       961.8960088683 Hartrees.
 NAtoms=   22 NActive=   22 NUniq=   22 SFac= 1.00D+00 NAtFMM=   60 NAOKFM=F Big=F
 Integral buffers will be    131072 words long.
 Raffenetti 2 integral format.
 Two-electron integral symmetry is turned on.
 One-electron integrals computed using PRISM.
 NBasis=   372 RedAO= T EigKep=  1.16D-06  NBF=   372
 NBsUse=   368 1.00D-06 EigRej=  8.47D-07 NBFU=   368
 Initial guess from the checkpoint file:  "/scratch/pkc/Gau-2880.chk"
 B after Tr=     0.000000    0.000000    0.000000
         Rot=    0.999782    0.000000    0.000000    0.020880 Ang=   2.39 deg.
 ExpMin= 4.38D-02 ExpMax= 1.06D+05 ExpMxC= 3.62D+03 IAcc=3 IRadAn=         5 AccDes= 0.00D+00
 Harris functional with IExCor=  402 and IRadAn=       5 diagonalized for initial guess.
 HarFok:  IExCor=  402 AccDes= 0.00D+00 IRadAn=         5 IDoV= 1 UseB2=F ITyADJ=14
 ICtDFT=  3500011 ScaDFX=  1.000000  1.000000  1.000000  1.000000
 FoFCou: FMM=F IPFlag=           0 FMFlag=      100000 FMFlg1=           0
         NFxFlg=           0 DoJE=T BraDBF=F KetDBF=T FulRan=T
         wScrn=  0.000000 ICntrl=       500 IOpCl=  0 I1Cent=   200000004 NGrid=           0
         NMat0=    1 NMatS0=      1 NMatT0=    0 NMatD0=    1 NMtDS0=    0 NMtDT0=    0
 Petite list used in FoFCou.
 Requested convergence on RMS density matrix=1.00D-08 within  32 cycles.
 Requested convergence on MAX density matrix=1.00D-06.
 Requested convergence on             energy=1.00D-06.
 No special actions if energy rises.
 SCF Done:  E(RB3LYP) =  -1382.64131518     A.U. after   16 cycles
            NFock= 16  Conv=0.93D-08     -V/T= 2.0031
 QCSCF skips out because SCF is already converged.
 Calling FoFJK, ICntrl=      2127 FMM=F ISym2X=0 I1Cent= 0 IOpClX= 0 NMat=1 NMatS=1 NMatT=0.
 ***** Axes restored to original set *****
 -------------------------------------------------------------------
 Center     Atomic                   Forces (Hartrees/Bohr)
 Number     Number              X              Y              Z
 -------------------------------------------------------------------
      1        6          -0.008990226   -0.029390381   -0.002558024
      2        6          -0.017070119    0.012897037    0.008046141
      3        6          -0.005197586    0.000053112    0.001722454
      4        6          -0.002022458   -0.008401459   -0.000911800
      5        6          -0.000409986   -0.006607721   -0.001105863
      6        6           0.027538322    0.017076197   -0.005865560
      7        6           0.013565538    0.021666521   -0.000399898
      8        6          -0.015483153    0.001001532    0.005289202
      9        6          -0.004420411    0.013605300    0.004011472
     10        6           0.007293563    0.006490332   -0.001183933
     11        6           0.013418500    0.002905832   -0.003874936
     12        6          -0.004510906   -0.021893744   -0.002625757
     13        1           0.006565615    0.000141901   -0.002136413
     14        1          -0.003983433    0.005841934    0.002409574
     15        1           0.003448592    0.010458616    0.000827946
     16        1           0.013545297   -0.001268880   -0.004701004
     17        1           0.003673951   -0.006667179   -0.002462535
     18        1          -0.004735432   -0.006480222    0.000343024
     19        1          -0.007517574    0.001518438    0.002761823
     20        1          -0.009655039   -0.007604126    0.001752850
     21       17          -0.004369052   -0.002142714    0.001036934
     22       17          -0.000684002   -0.003200325   -0.000375696
 -------------------------------------------------------------------
 Cartesian Forces:  Max     0.029390381 RMS     0.009108576

 GradGradGradGradGradGradGradGradGradGradGradGradGradGradGradGradGradGrad
 Berny optimization.
 Using GEDIIS/GDIIS optimizer.
 FormGI is forming the generalized inverse of G from B-inverse, IUseBI=4.
 Internal  Forces:  Max     0.062985001 RMS     0.011357377
 Search for a local minimum.
 Step number   2 out of a maximum of  121
 All quantities printed in internal units (Hartrees-Bohrs-Radians)
 Mixed Optimization -- RFO/linear search
 Update second derivatives using D2CorX and points    1    2
 DE= -4.14D-02 DEPred=-1.52D-01 R= 2.72D-01
 Trust test= 2.72D-01 RLast= 3.00D-01 DXMaxT set to 3.00D-01
 ITU=  0  0
 Use linear search instead of GDIIS.
     Eigenvalues ---    0.00237   0.01478   0.01484   0.02070   0.02070
     Eigenvalues ---    0.02070   0.02070   0.02070   0.02070   0.02070
     Eigenvalues ---    0.02070   0.02070   0.02070   0.02070   0.02070
     Eigenvalues ---    0.02070   0.02070   0.02070   0.02070   0.15972
     Eigenvalues ---    0.16000   0.16000   0.16000   0.16000   0.16000
     Eigenvalues ---    0.16000   0.16035   0.21998   0.22004   0.22393
     Eigenvalues ---    0.23397   0.23504   0.24438   0.24897   0.25000
     Eigenvalues ---    0.25000   0.28450   0.29537   0.29539   0.37060
     Eigenvalues ---    0.37179   0.37230   0.37230   0.37230   0.37230
     Eigenvalues ---    0.37230   0.37230   0.40473   0.41173   0.41293
     Eigenvalues ---    0.41564   0.45057   0.45346   0.45389   0.45389
     Eigenvalues ---    0.45389   0.45389   0.45389   0.45389   2.13178
 RFO step:  Lambda=-1.48215751D-02 EMin= 2.36824176D-03
 Quartic linear search produced a step of -0.30928.
 Iteration  1 RMS(Cart)=  0.14784602 RMS(Int)=  0.00461124
 Iteration  2 RMS(Cart)=  0.00859735 RMS(Int)=  0.00007382
 Iteration  3 RMS(Cart)=  0.00003413 RMS(Int)=  0.00007312
 Iteration  4 RMS(Cart)=  0.00000000 RMS(Int)=  0.00007312
 Variable       Old X    -DE/DX   Delta X   Delta X   Delta X     New X
                                 (Linear)    (Quad)   (Total)
    R1        2.70212  -0.01716  -0.01666   0.01987   0.00337   2.70549
    R2        2.65783   0.00909  -0.00296   0.02161   0.01876   2.67659
    R3        2.94694  -0.00552  -0.01137   0.01636   0.00499   2.95193
    R4        2.65016  -0.00755  -0.00059  -0.01005  -0.01060   2.63956
    R5        3.32257  -0.00160   0.00103  -0.00623  -0.00519   3.31738
    R6        2.63354  -0.01094   0.00455  -0.02870  -0.02427   2.60927
    R7        2.02613   0.00685  -0.00128   0.01561   0.01433   2.04047
    R8        2.62871  -0.00661   0.00605  -0.02590  -0.02001   2.60870
    R9        3.32366  -0.00321   0.00070  -0.00894  -0.00824   3.31542
   R10        2.63770  -0.00601   0.00327  -0.01725  -0.01402   2.62368
   R11        2.02629   0.00747  -0.00132   0.01684   0.01552   2.04180
   R12        2.02479  -0.00432  -0.00086  -0.00541  -0.00627   2.01852
   R13        2.65635  -0.00142  -0.00250   0.00495   0.00254   2.65889
   R14        2.65633   0.01078  -0.00250   0.02333   0.02088   2.67722
   R15        2.64856  -0.00720  -0.00009  -0.01079  -0.01085   2.63772
   R16        2.00106   0.01438   0.00648   0.00838   0.01486   2.01592
   R17        2.63813  -0.00832   0.00313  -0.02146  -0.01838   2.61975
   R18        2.02681   0.00793  -0.00149   0.01809   0.01660   2.04341
   R19        2.63703  -0.00505   0.00347  -0.01715  -0.01376   2.62327
   R20        2.02690   0.00803  -0.00151   0.01835   0.01683   2.04373
   R21        2.64304  -0.00652   0.00162  -0.01357  -0.01199   2.63105
   R22        2.02667   0.00812  -0.00144   0.01831   0.01687   2.04354
   R23        2.02547  -0.00291  -0.00107  -0.00234  -0.00341   2.02206
    A1        2.05145  -0.01886   0.01328  -0.08223  -0.06866   1.98279
    A2        2.25174  -0.04412  -0.04866   0.00628  -0.04253   2.20921
    A3        1.97999   0.06299   0.03538   0.07596   0.11119   2.09118
    A4        2.08969   0.01751   0.00145   0.04057   0.04222   2.13191
    A5        2.19953  -0.01658  -0.03252   0.03852   0.00591   2.20544
    A6        1.99396  -0.00093   0.03106  -0.07909  -0.04813   1.94583
    A7        2.11450  -0.00430  -0.00622   0.00096  -0.00534   2.10916
    A8        2.08421   0.00127   0.00315  -0.00404  -0.00085   2.08337
    A9        2.08447   0.00303   0.00307   0.00307   0.00618   2.09065
   A10        2.09019  -0.00038   0.00130  -0.00402  -0.00300   2.08719
   A11        2.09580  -0.00102  -0.00044  -0.00168  -0.00197   2.09383
   A12        2.09719   0.00140  -0.00086   0.00570   0.00498   2.10217
   A13        2.09038  -0.00189   0.00124  -0.00686  -0.00582   2.08456
   A14        2.09594   0.00085  -0.00048   0.00272   0.00234   2.09828
   A15        2.09686   0.00105  -0.00076   0.00415   0.00348   2.10035
   A16        2.13015   0.00792  -0.01106   0.05159   0.04060   2.17076
   A17        2.07822   0.00633   0.00500   0.01598   0.02094   2.09916
   A18        2.07481  -0.01425   0.00606  -0.06757  -0.06155   2.01326
   A19        2.20351  -0.04257  -0.03375  -0.02743  -0.06125   2.14226
   A20        2.01957   0.05610   0.02314   0.08794   0.11100   2.13057
   A21        2.06011  -0.01353   0.01060  -0.06051  -0.04975   2.01036
   A22        2.10668   0.00856  -0.00380   0.03337   0.02970   2.13638
   A23        2.10601  -0.00480  -0.00359  -0.00661  -0.01027   2.09574
   A24        2.07050  -0.00376   0.00739  -0.02676  -0.01943   2.05107
   A25        2.10249   0.00171  -0.00250   0.00822   0.00569   2.10818
   A26        2.09019  -0.00195   0.00130  -0.00855  -0.00724   2.08295
   A27        2.09051   0.00024   0.00120   0.00033   0.00154   2.09206
   A28        2.08525  -0.00323   0.00283  -0.01882  -0.01614   2.06910
   A29        2.09943   0.00152  -0.00156   0.00934   0.00785   2.10728
   A30        2.09851   0.00171  -0.00127   0.00949   0.00829   2.10680
   A31        2.09484   0.00355  -0.00014   0.01056   0.01030   2.10514
   A32        2.09439  -0.00106   0.00000  -0.00229  -0.00222   2.09216
   A33        2.09396  -0.00250   0.00014  -0.00827  -0.00807   2.08589
   A34        2.11700   0.00293  -0.00699   0.02719   0.02022   2.13722
   A35        2.08556   0.01075   0.00273   0.03633   0.03905   2.12461
   A36        2.08062  -0.01369   0.00426  -0.06352  -0.05927   2.02135
    D1        0.00000  -0.00000   0.00000   0.00000   0.00000   0.00000
    D2        3.14159   0.00000   0.00000   0.00000   0.00000  -3.14159
    D3       -3.14159  -0.00000   0.00000  -0.00000  -0.00000  -3.14159
    D4       -0.00000   0.00000   0.00000   0.00000   0.00000  -0.00000
    D5       -0.00000   0.00000  -0.00000  -0.00000  -0.00000  -0.00000
    D6        3.14159  -0.00000  -0.00000  -0.00000  -0.00000   3.14159
    D7        3.14159   0.00000   0.00000   0.00000   0.00000   3.14159
    D8       -0.00000  -0.00000   0.00000  -0.00000  -0.00000  -0.00000
    D9       -0.00000  -0.00000   0.00000  -0.00000  -0.00000  -0.00001
   D10        3.14159  -0.00000   0.00000  -0.00000  -0.00000   3.14159
   D11        3.14159  -0.00000   0.00000  -0.00000  -0.00000   3.14159
   D12       -0.00000  -0.00000   0.00000  -0.00000  -0.00000  -0.00001
   D13        0.00000  -0.00000  -0.00000  -0.00000  -0.00000  -0.00000
   D14        3.14159   0.00000  -0.00000   0.00000   0.00000   3.14159
   D15       -3.14159  -0.00000   0.00000  -0.00000  -0.00000  -3.14159
   D16        0.00000  -0.00000   0.00000  -0.00000  -0.00000   0.00000
   D17       -0.00000   0.00000  -0.00000   0.00000   0.00000  -0.00000
   D18        3.14159   0.00000   0.00000   0.00000   0.00000   3.14159
   D19        3.14159   0.00000   0.00000   0.00000   0.00000   3.14159
   D20        0.00000  -0.00000   0.00000  -0.00000  -0.00000   0.00000
   D21        0.00000  -0.00000   0.00000  -0.00000  -0.00000   0.00000
   D22       -3.14159  -0.00000   0.00000  -0.00000  -0.00000  -3.14159
   D23       -3.14159  -0.00000   0.00000  -0.00000  -0.00000  -3.14159
   D24        0.00000   0.00000   0.00000   0.00000   0.00000   0.00000
   D25       -0.00000   0.00000  -0.00000   0.00000   0.00000  -0.00000
   D26        3.14159   0.00000  -0.00000   0.00000   0.00000  -3.14159
   D27        3.14159   0.00000  -0.00000   0.00000   0.00000   3.14159
   D28       -0.00000   0.00000  -0.00000   0.00000   0.00000  -0.00000
   D29        3.14159   0.00000  -0.00000   0.00000   0.00000   3.14159
   D30        0.00000   0.00000   0.00000  -0.00000  -0.00000   0.00000
   D31        0.00000   0.00000   0.00000   0.00000   0.00000   0.00000
   D32       -3.14159  -0.00000   0.00000  -0.00000  -0.00000  -3.14159
   D33       -3.14159   0.00000   0.00000  -0.00000  -0.00000  -3.14159
   D34        0.00000   0.00000   0.00000  -0.00000  -0.00000  -0.00000
   D35       -0.00000  -0.00000  -0.00000  -0.00000  -0.00000  -0.00000
   D36        3.14159  -0.00000  -0.00000  -0.00000  -0.00000   3.14159
   D37       -0.00000  -0.00000   0.00000  -0.00000  -0.00000  -0.00000
   D38        3.14159  -0.00000   0.00000  -0.00000  -0.00000   3.14159
   D39        3.14159   0.00000  -0.00000   0.00000   0.00000   3.14159
   D40       -0.00000   0.00000  -0.00000   0.00000   0.00000  -0.00000
   D41       -0.00000  -0.00000  -0.00000  -0.00000  -0.00000  -0.00000
   D42       -3.14159  -0.00000   0.00000  -0.00000  -0.00000  -3.14159
   D43        3.14159   0.00000  -0.00000   0.00000   0.00000   3.14159
   D44        0.00000  -0.00000   0.00000  -0.00000  -0.00000   0.00000
   D45        0.00000   0.00000  -0.00000   0.00000   0.00000   0.00000
   D46       -3.14159  -0.00000   0.00000  -0.00000  -0.00000  -3.14159
   D47        3.14159   0.00000  -0.00000   0.00000   0.00000   3.14159
   D48        0.00000  -0.00000   0.00000  -0.00000  -0.00000   0.00000
   D49        0.00000  -0.00000   0.00000  -0.00000  -0.00000   0.00000
   D50       -3.14159   0.00000   0.00000  -0.00000  -0.00000  -3.14159
   D51        3.14159   0.00000  -0.00000   0.00000   0.00000   3.14159
   D52       -0.00000   0.00000  -0.00000   0.00000   0.00000  -0.00000
         Item               Value     Threshold  Converged?
 Maximum Force            0.062985     0.000450     NO 
 RMS     Force            0.011357     0.000300     NO 
 Maximum Displacement     0.559828     0.001800     NO 
 RMS     Displacement     0.151038     0.001200     NO 
 Predicted change in Energy=-9.770426D-03
 GradGradGradGradGradGradGradGradGradGradGradGradGradGradGradGradGradGrad

                          Input orientation:                          
 ---------------------------------------------------------------------
 Center     Atomic      Atomic             Coordinates (Angstroms)
 Number     Number       Type             X           Y           Z
 ---------------------------------------------------------------------
      1          6           0       -1.201114   -2.396933   -0.131474
      2          6           0        0.159255   -2.245468   -0.551206
      3          6           0        0.809410   -1.009339   -0.533247
      4          6           0        0.155334    0.128431   -0.104077
      5          6           0       -1.157985    0.043420    0.312633
      6          6           0       -1.801605   -1.186632    0.293662
      7          6           0       -2.026123   -3.723198   -0.108755
      8          6           0       -1.491559   -4.959043   -0.516978
      9          6           0       -2.235236   -6.140024   -0.493768
     10          6           0       -3.551986   -6.141058   -0.060147
     11          6           0       -4.116031   -4.941141    0.351042
     12          6           0       -3.373392   -3.763685    0.327512
     13          1           0        1.836671   -0.946523   -0.859883
     14          1           0       -1.679668    0.927235    0.650489
     15          1           0       -2.815570   -1.177482    0.629433
     16          1           0       -0.483261   -5.018191   -0.860278
     17          1           0       -1.774634   -7.062769   -0.818820
     18          1           0       -4.127430   -7.056585   -0.042506
     19          1           0       -5.141536   -4.917401    0.693365
     20          1           0       -3.883673   -2.884202    0.660807
     21         17           0        1.215277   -3.518993   -1.138293
     22         17           0        0.994186    1.669287   -0.091054
 ---------------------------------------------------------------------
                    Distance matrix (angstroms):
                    1          2          3          4          5
     1  C    0.000000
     2  C    1.431684   0.000000
     3  C    2.475691   1.396796   0.000000
     4  C    2.866734   2.415644   1.380769   0.000000
     5  C    2.480809   2.778551   2.386307   1.380464   0.000000
     6  C    1.416389   2.383256   2.744561   2.391066   1.388393
     7  C    1.562093   2.674944   3.947844   4.426490   3.888269
[...]
     11          6           0       -3.678276   -1.231687    0.849747
     12          6           0       -2.286805   -1.159155    0.863597
     13          1           0        2.602715    1.735476    0.251070
     14          1           0        2.500261   -2.511794   -0.372659
     15          1           0        0.028620   -2.434685   -0.362248
     16          1           0       -1.833482    1.007710   -1.709120
     17          1           0       -4.295856    0.874092   -1.738980
     18          1           0       -5.489582   -0.555681   -0.097592
     19          1           0       -4.191178   -1.857405    1.571532
     20          1           0       -1.724376   -1.723054    1.599613
     21         17           0       -0.118257    2.400051    0.403124
     22         17           0        4.451658   -0.423802   -0.084872
 ---------------------------------------------------------------------
 Rotational constants (GHZ):           1.2307952           0.2879195           0.2470914

 **********************************************************************

            Population analysis using the SCF Density.

 **********************************************************************

 Orbital symmetries:
       Occupied  (A) (A) (A) (A) (A) (A) (A) (A) (A) (A) (A) (A)
                 (A) (A) (A) (A) (A) (A) (A) (A) (A) (A) (A) (A)
                 (A) (A) (A) (A) (A) (A) (A) (A) (A) (A) (A) (A)
                 (A) (A) (A) (A) (A) (A) (A) (A) (A) (A) (A) (A)
                 (A) (A) (A) (A) (A) (A) (A) (A) (A)
       Virtual   (A) (A) (A) (A) (A) (A) (A) (A) (A) (A) (A) (A)
                 (A) (A) (A) (A) (A) (A) (A) (A) (A) (A) (A) (A)
                 (A) (A) (A) (A) (A) (A) (A) (A) (A) (A) (A) (A)
                 (A) (A) (A) (A) (A) (A) (A) (A) (A) (A) (A) (A)
                 (A) (A) (A) (A) (A) (A) (A) (A) (A) (A) (A) (A)
                 (A) (A) (A) (A) (A) (A) (A) (A) (A) (A) (A) (A)
                 (A) (A) (A) (A) (A) (A) (A) (A) (A) (A) (A) (A)
                 (A) (A) (A) (A) (A) (A) (A) (A) (A) (A) (A) (A)
                 (A) (A) (A) (A) (A) (A) (A) (A) (A) (A) (A) (A)
                 (A) (A) (A) (A) (A) (A) (A) (A) (A) (A) (A) (A)
                 (A) (A) (A) (A) (A) (A) (A) (A) (A) (A) (A) (A)
                 (A) (A) (A) (A) (A) (A) (A) (A) (A) (A) (A) (A)
                 (A) (A) (A) (A) (A) (A) (A) (A) (A) (A) (A) (A)
                 (A) (A) (A) (A) (A) (A) (A) (A) (A) (A) (A) (A)
                 (A) (A) (A) (A) (A) (A) (A) (A) (A) (A) (A) (A)
                 (A) (A) (A) (A) (A) (A) (A) (A) (A) (A) (A) (A)
                 (A) (A) (A) (A) (A) (A) (A) (A) (A) (A) (A) (A)
                 (A) (A) (A) (A) (A) (A) (A) (A) (A) (A) (A) (A)
                 (A) (A) (A) (A) (A) (A) (A) (A) (A) (A) (A) (A)
                 (A) (A) (A) (A) (A) (A) (A) (A) (A) (A) (A) (A)
                 (A) (A) (A) (A) (A) (A) (A) (A) (A) (A) (A) (A)
                 (A) (A) (A) (A) (A) (A) (A) (A) (A) (A) (A) (A)
                 (A) (A) (A) (A) (A) (A) (A) (A) (A) (A) (A) (A)
                 (A) (A) (A) (A) (A) (A) (A) (A) (A) (A) (A) (A)
                 (A) (A) (A) (A) (A) (A) (A) (A) (A) (A) (A) (A)
                 (A) (A) (A) (A) (A) (A) (A) (A) (A) (A) (A) (A)
                 (A) (A)
 The electronic state is 1-A.
 Alpha  occ. eigenvalues -- -101.56424-101.56187 -10.25710 -10.25495 -10.21376
 Alpha  occ. eigenvalues --  -10.20612 -10.20317 -10.20165 -10.20067 -10.18751
 Alpha  occ. eigenvalues --  -10.18652 -10.18616 -10.18564 -10.18516  -9.47878
 Alpha  occ. eigenvalues --   -9.47662  -7.24342  -7.24127  -7.23360  -7.23325
 Alpha  occ. eigenvalues --   -7.23149  -7.23095  -0.92182  -0.88665  -0.87042
 Alpha  occ. eigenvalues --   -0.83979  -0.78905  -0.76255  -0.75989  -0.73113
 Alpha  occ. eigenvalues --   -0.64267  -0.63234  -0.61620  -0.59658  -0.54678
 Alpha  occ. eigenvalues --   -0.51352  -0.50691  -0.48331  -0.46762  -0.46537
 Alpha  occ. eigenvalues --   -0.45174  -0.44163  -0.43545  -0.42148  -0.40238
 Alpha  occ. eigenvalues --   -0.39362  -0.37862  -0.37144  -0.36144  -0.35902
 Alpha  occ. eigenvalues --   -0.33279  -0.32990  -0.32307  -0.28024  -0.27109
 Alpha  occ. eigenvalues --   -0.26727  -0.24850
 Alpha virt. eigenvalues --   -0.04978  -0.04276  -0.02443  -0.01514  -0.00842
 Alpha virt. eigenvalues --   -0.00323   0.00864   0.01642   0.02051   0.02493
 Alpha virt. eigenvalues --    0.03170   0.04044   0.04354   0.04764   0.05312
 Alpha virt. eigenvalues --    0.05681   0.06326   0.07367   0.07497   0.08305
 Alpha virt. eigenvalues --    0.08948   0.09173   0.10076   0.10281   0.10636
 Alpha virt. eigenvalues --    0.10781   0.11724   0.11833   0.12193   0.12421
 Alpha virt. eigenvalues --    0.13011   0.13306   0.14064   0.14400   0.14935
 Alpha virt. eigenvalues --    0.15308   0.15674   0.16200   0.16381   0.16815
 Alpha virt. eigenvalues --    0.17167   0.17701   0.18492   0.18804   0.19004
 Alpha virt. eigenvalues --    0.19426   0.19768   0.19899   0.20074   0.20700
 Alpha virt. eigenvalues --    0.21155   0.21346   0.22107   0.22409   0.23084
 Alpha virt. eigenvalues --    0.23224   0.23562   0.23742   0.24082   0.24800
 Alpha virt. eigenvalues --    0.25100   0.25672   0.25866   0.26743   0.27165
 Alpha virt. eigenvalues --    0.27468   0.27740   0.28922   0.29078   0.29179
 Alpha virt. eigenvalues --    0.29826   0.30357   0.30623   0.31179   0.32214
 Alpha virt. eigenvalues --    0.32499   0.33957   0.35008   0.36347   0.37568
 Alpha virt. eigenvalues --    0.41952   0.42943   0.44552   0.45673   0.46557
 Alpha virt. eigenvalues --    0.47944   0.48464   0.49076   0.50423   0.51578
 Alpha virt. eigenvalues --    0.52642   0.53074   0.53960   0.54118   0.54371
 Alpha virt. eigenvalues --    0.56053   0.56611   0.57458   0.57765   0.58493
 Alpha virt. eigenvalues --    0.58902   0.59405   0.60990   0.61368   0.62459
 Alpha virt. eigenvalues --    0.62946   0.63952   0.64826   0.65206   0.66630
 Alpha virt. eigenvalues --    0.67755   0.68296   0.68800   0.69322   0.70023
 Alpha virt. eigenvalues --    0.70429   0.70694   0.72041   0.72755   0.72900
 Alpha virt. eigenvalues --    0.74019   0.74420   0.77246   0.79055   0.81822
 Alpha virt. eigenvalues --    0.82065   0.82343   0.83415   0.83934   0.84189
 Alpha virt. eigenvalues --    0.84534   0.85042   0.85776   0.85917   0.86173
 Alpha virt. eigenvalues --    0.86810   0.88390   0.89270   0.90210   0.90489
 Alpha virt. eigenvalues --    0.92011   0.93421   0.94542   0.94868   0.95145
 Alpha virt. eigenvalues --    0.96884   0.97218   1.00095   1.00480   1.00771
 Alpha virt. eigenvalues --    1.01816   1.03463   1.05852   1.06539   1.07297
 Alpha virt. eigenvalues --    1.08504   1.11659   1.13319   1.13964   1.15001
 Alpha virt. eigenvalues --    1.17408   1.19794   1.24600   1.25348   1.25872
 Alpha virt. eigenvalues --    1.30348   1.31099   1.33204   1.35578   1.38822
 Alpha virt. eigenvalues --    1.44351   1.48400   1.49276   1.50359   1.51494
 Alpha virt. eigenvalues --    1.52257   1.53030   1.54922   1.55180   1.56524
 Alpha virt. eigenvalues --    1.57234   1.57949   1.60691   1.63165   1.64713
 Alpha virt. eigenvalues --    1.65141   1.66478   1.68064   1.69448   1.72333
 Alpha virt. eigenvalues --    1.72857   1.73948   1.77001   1.77262   1.79453
 Alpha virt. eigenvalues --    1.81640   1.83793   1.86033   1.88103   1.89736
 Alpha virt. eigenvalues --    1.90942   1.91581   1.92473   1.94006   1.94799
 Alpha virt. eigenvalues --    1.95510   1.95922   1.97054   1.98050   2.00296
 Alpha virt. eigenvalues --    2.00814   2.01533   2.04563   2.05514   2.07142
 Alpha virt. eigenvalues --    2.08165   2.09104   2.16303   2.20713   2.23291
 Alpha virt. eigenvalues --    2.25758   2.27399   2.29476   2.30545   2.35528
 Alpha virt. eigenvalues --    2.36317   2.38617   2.39424   2.39930   2.41049
 Alpha virt. eigenvalues --    2.42178   2.43950   2.47519   2.51454   2.54700
 Alpha virt. eigenvalues --    2.55713   2.58867   2.61989   2.63017   2.65820
 Alpha virt. eigenvalues --    2.67086   2.68151   2.68822   2.69217   2.71862
 Alpha virt. eigenvalues --    2.72439   2.74087   2.74807   2.75003   2.76560
 Alpha virt. eigenvalues --    2.77850   2.78932   2.79836   2.80643   2.81493
 Alpha virt. eigenvalues --    2.84410   2.84964   2.85346   2.86387   2.89170
 Alpha virt. eigenvalues --    2.92579   2.93078   2.99367   3.01169   3.07860
 Alpha virt. eigenvalues --    3.09351   3.11987   3.15194   3.17558   3.20866
 Alpha virt. eigenvalues --    3.24536   3.32894   3.35593   3.37489   3.43459
 Alpha virt. eigenvalues --    3.49292   3.51866   3.53671   3.59404   3.63266
 Alpha virt. eigenvalues --    3.71162   3.80186   3.85894   3.97931   4.03051
 Alpha virt. eigenvalues --    4.06481   4.12734   4.14284   4.15008   4.40345
 Alpha virt. eigenvalues --    4.81124   4.84685   9.76740   9.80750  23.46230
 Alpha virt. eigenvalues --   23.66815  23.86652  23.92371  23.94598  23.95408
 Alpha virt. eigenvalues --   24.01176  24.05855  24.08122  24.08942  24.14322
 Alpha virt. eigenvalues --   24.18834  25.82576  25.89218  26.10642  26.25066
 Alpha virt. eigenvalues --   26.58141  26.70435 215.75744 215.80523
          Condensed to atoms (all electrons):
               1          2          3          4          5          6
     1  C   30.065818  -1.985795   1.174672  -5.085110  -0.748122 -10.299058
     2  C   -1.985795  33.632712  -4.797359  -2.017145   2.255672 -12.911633
     3  C    1.174672  -4.797359  22.997083  -0.309521  -8.556331  -2.076838
     4  C   -5.085110  -2.017145  -0.309521  15.728342  -2.247883   0.153211
     5  C   -0.748122   2.255672  -8.556331  -2.247883  17.524327  -1.830606
     6  C  -10.299058 -12.911633  -2.076838   0.153211  -1.830606  24.677557
     7  C   -5.129051 -11.244059  -1.934536   0.092890  -0.892316   9.854448
     8  C   -1.078472   2.838700   0.627609  -0.208697  -0.000577  -2.357326
     9  C    0.416974  -0.804319  -0.288964  -0.035270   0.084918   0.727842
    10  C   -0.424550   0.377585   0.102519   0.002351  -0.051157  -0.323287
    11  C    0.172405  -0.419358  -0.137195   0.043860   0.107827   0.625761
    12  C   -0.659303   0.216864   0.293592   0.264274  -0.096843   0.432604
    13  H    0.069484   0.091020   0.060866   0.045684   0.031697   0.025254
    14  H   -0.051139   0.004720   0.033241   0.095790   0.247443   0.002299
    15  H   -0.106768  -0.014738  -0.034740   0.031829  -0.096204   0.479459
    16  H    0.015222   0.136415   0.016254  -0.001022   0.001948  -0.078540
    17  H    0.002494   0.006472   0.001431  -0.000029  -0.000430  -0.003812
    18  H    0.011388  -0.000069   0.000045  -0.000017   0.000007  -0.002012
    19  H    0.011994   0.005264   0.000380  -0.000189  -0.000366  -0.010725
    20  H   -0.017724  -0.026465   0.006785   0.001915  -0.004991   0.060666
    21  Cl  -1.095402   1.213079  -0.654551  -0.069507   0.340356  -0.372132
    22  Cl  -0.021523  -0.100356   0.327314  -1.243370   0.311958   0.085122
               7          8          9         10         11         12
     1  C   -5.129051  -1.078472   0.416974  -0.424550   0.172405  -0.659303
     2  C  -11.244059   2.838700  -0.804319   0.377585  -0.419358   0.216864
     3  C   -1.934536   0.627609  -0.288964   0.102519  -0.137195   0.293592
     4  C    0.092890  -0.208697  -0.035270   0.002351   0.043860   0.264274
     5  C   -0.892316  -0.000577   0.084918  -0.051157   0.107827  -0.096843
     6  C    9.854448  -2.357326   0.727842  -0.323287   0.625761   0.432604
     7  C   24.220708  -4.667026   0.502683  -2.536255  -0.636700  -2.675681
     8  C   -4.667026  20.113031  -1.912300   2.187626  -2.610348  -6.402679
     9  C    0.502683  -1.912300   9.631396  -1.143141   1.217299  -2.710827
    10  C   -2.536255   2.187626  -1.143141   7.149814  -0.332071   0.924940
    11  C   -0.636700  -2.610348   1.217299  -0.332071   7.599346   0.179089
    12  C   -2.675681  -6.402679  -2.710827   0.924940   0.179089  16.724638
    13  H    0.031022  -0.002801   0.000085  -0.000033   0.000040   0.000789
    14  H    0.027435   0.000143   0.000120  -0.000023  -0.000017  -0.002693
    15  H    0.040515  -0.028761  -0.013064   0.006248  -0.005103   0.087588
    16  H   -0.096716   0.401107  -0.066017   0.010952  -0.021027   0.030498
    17  H    0.029742  -0.028327   0.362043  -0.010198  -0.010558  -0.000018
    18  H    0.038861  -0.047389   0.031944   0.338890   0.025313  -0.047265
    19  H    0.008523   0.005264  -0.019584   0.006753   0.359643  -0.018058
    20  H    0.034165  -0.009117  -0.004626  -0.007877  -0.035447   0.354759
    21  Cl  -0.205916   0.080753   0.292075  -0.088349   0.020819  -0.361688
    22  Cl  -0.054569  -0.013970   0.000733  -0.000661   0.003970   0.012841
              13         14         15         16         17         18
     1  C    0.069484  -0.051139  -0.106768   0.015222   0.002494   0.011388
     2  C    0.091020   0.004720  -0.014738   0.136415   0.006472  -0.000069
     3  C    0.060866   0.033241  -0.034740   0.016254   0.001431   0.000045
     4  C    0.045684   0.095790   0.031829  -0.001022  -0.000029  -0.000017
     5  C    0.031697   0.247443  -0.096204   0.001948  -0.000430   0.000007
     6  C    0.025254   0.002299   0.479459  -0.078540  -0.003812  -0.002012
     7  C    0.031022   0.027435   0.040515  -0.096716   0.029742   0.038861
     8  C   -0.002801   0.000143  -0.028761   0.401107  -0.028327  -0.047389
     9  C    0.000085   0.000120  -0.013064  -0.066017   0.362043   0.031944
    10  C   -0.000033  -0.000023   0.006248   0.010952  -0.010198   0.338890
    11  C    0.000040  -0.000017  -0.005103  -0.021027  -0.010558   0.025313
    12  C    0.000789  -0.002693   0.087588   0.030498  -0.000018  -0.047265
    13  H    0.498596  -0.000244   0.000045   0.000013   0.000000  -0.000000
    14  H   -0.000244   0.513809  -0.007527   0.000002   0.000000  -0.000000
    15  H    0.000045  -0.007527   0.521647  -0.000038   0.000004  -0.000000
    16  H    0.000013   0.000002  -0.000038   0.528163  -0.007450  -0.000233
    17  H    0.000000   0.000000   0.000004  -0.007450   0.539173  -0.007905
    18  H   -0.000000  -0.000000  -0.000000  -0.000233  -0.007905   0.538157
    19  H    0.000000   0.000000   0.000020   0.000083  -0.000262  -0.007967
    20  H    0.000003   0.000030  -0.000397  -0.000273   0.000081  -0.000246
    21  Cl  -0.007623   0.000982  -0.001397   0.001768  -0.001107   0.000072
    22  Cl  -0.013625  -0.014128   0.000586  -0.000050  -0.000000   0.000000
              19         20         21         22
     1  C    0.011994  -0.017724  -1.095402  -0.021523
     2  C    0.005264  -0.026465   1.213079  -0.100356
     3  C    0.000380   0.006785  -0.654551   0.327314
     4  C   -0.000189   0.001915  -0.069507  -1.243370
     5  C   -0.000366  -0.004991   0.340356   0.311958
     6  C   -0.010725   0.060666  -0.372132   0.085122
     7  C    0.008523   0.034165  -0.205916  -0.054569
     8  C    0.005264  -0.009117   0.080753  -0.013970
     9  C   -0.019584  -0.004626   0.292075   0.000733
    10  C    0.006753  -0.007877  -0.088349  -0.000661
    11  C    0.359643  -0.035447   0.020819   0.003970
    12  C   -0.018058   0.354759  -0.361688   0.012841
    13  H    0.000000   0.000003  -0.007623  -0.013625
    14  H    0.000000   0.000030   0.000982  -0.014128
    15  H    0.000020  -0.000397  -0.001397   0.000586
    16  H    0.000083  -0.000273   0.001768  -0.000050
    17  H   -0.000262   0.000081  -0.001107  -0.000000
    18  H   -0.007967  -0.000246   0.000072   0.000000
    19  H    0.539595  -0.007786  -0.000236  -0.000001
    20  H   -0.007786   0.535746  -0.002300  -0.000055
    21  Cl  -0.000236  -0.002300  17.544967  -0.028509
    22  Cl  -0.000001  -0.000055  -0.028509  17.361242
 Mulliken charges:
               1
     1  C    0.761569
     2  C   -0.457205
     3  C   -0.851755
     4  C    0.757614
     5  C   -0.380325
     6  C   -0.858254
     7  C    1.191831
     8  C   -0.886442
     9  C   -0.270001
    10  C   -0.190075
    11  C   -0.147548
    12  C   -0.547421
    13  H    0.169729
    14  H    0.149757
    15  H    0.140797
    16  H    0.128939
    17  H    0.128654
    18  H    0.128426
    19  H    0.127659
    20  H    0.123152
    21  Cl   0.393845
    22  Cl   0.387053
 Sum of Mulliken charges =  -0.00000
 Mulliken charges with hydrogens summed into heavy atoms:
               1
     1  C    0.761569
     2  C   -0.457205
     3  C   -0.682026
     4  C    0.757614
     5  C   -0.230567
     6  C   -0.717457
     7  C    1.191831
     8  C   -0.757503
     9  C   -0.141347
    10  C   -0.061649
    11  C   -0.019889
    12  C   -0.424269
    21  Cl   0.393845
    22  Cl   0.387053
 Electronic spatial extent (au):  <R**2>=           4140.3372
 Charge=             -0.0000 electrons
 Dipole moment (field-independent basis, Debye):
    X=             -1.4993    Y=             -1.3538    Z=             -0.2650  Tot=              2.0374
 Quadrupole moment (field-independent basis, Debye-Ang):
   XX=            -93.1742   YY=            -92.3567   ZZ=            -96.0220
   XY=              1.1001   XZ=              0.5066   YZ=             -3.1582
 Traceless Quadrupole moment (field-independent basis, Debye-Ang):
   XX=              0.6767   YY=              1.4943   ZZ=             -2.1710
   XY=              1.1001   XZ=              0.5066   YZ=             -3.1582
 Octapole moment (field-independent basis, Debye-Ang**2):
  XXX=            -43.5663  YYY=             -0.3179  ZZZ=              1.7852  XYY=             14.3368
  XXY=              4.4007  XXZ=             -0.6991  XZZ=             -0.4761  YZZ=              4.3130
  YYZ=              1.9128  XYZ=             13.8428
 Hexadecapole moment (field-independent basis, Debye-Ang**3):
 XXXX=          -4207.0120 YYYY=           -942.8128 ZZZZ=           -288.5029 XXXY=             27.2699
 XXXZ=             11.6635 YYYX=            -31.0808 YYYZ=              6.1311 ZZZX=              0.6073
 ZZZY=            -11.6860 XXYY=           -882.8977 XXZZ=           -784.2916 YYZZ=           -207.0767
 XXYZ=            -38.9626 YYXZ=            -15.0065 ZZXY=             -3.0105
 N-N= 9.718874545398D+02 E-N=-5.203377613585D+03  KE= 1.378412010144D+03
 1\1\GINC-DAMODAR\FOpt\RB3LYP\6-311+G(d,p)\C12H8Cl2\PKC\14-Mar-2022\0\\
 # opt b3lyp/6-311+g(d,p) scf=xqc\\Title Card Required\\0,1\C,-1.232703
 7814,-2.4125425438,-0.1375435399\C,-0.1600954147,-2.1369358118,-0.9986
 590053\C,0.5296410488,-0.9271996192,-0.9589744401\C,0.1428506873,0.038
 0155666,-0.0383806585\C,-0.9193782228,-0.1849693565,0.8302449744\C,-1.
 5892471565,-1.4011336195,0.7676413982\C,-1.999110906,-3.6893352163,-0.
 1401736384\C,-1.3709344546,-4.9174345229,0.102725715\C,-2.1120133426,-
 6.0950112559,0.145755834\C,-3.4911119546,-6.0658544481,-0.0581014447\C
 ,-4.1259218359,-4.8497559047,-0.3005788806\C,-3.3855371711,-3.66988611
 39,-0.3377661708\H,1.3467680375,-0.7434211868,-1.6425940704\H,-1.21168
 20233,0.5732517591,1.5448095017\H,-2.4078555031,-1.5890900852,1.452566
 5681\H,-0.3006677295,-4.9489557183,0.2682371249\H,-1.611474622,-7.0366
 439365,0.341521758\H,-4.0659199463,-6.9845234589,-0.027760123\H,-5.197
 1781323,-4.8175816493,-0.4647172848\H,-3.882682051,-2.7269306312,-0.53
 70358276\Cl,0.3418155235,-3.2973850915,-2.22208687\Cl,1.0117686405,1.5
 630295244,0.0193288098\\Version=EM64L-G16RevB.01\State=1-A\HF=-1382.66
 28747\RMSD=8.070e-09\RMSF=8.176e-06\Dipole=-0.596646,-0.3422696,0.4115
 887\Quadrupole=2.2085318,0.6263692,-2.834901,-0.5760237,-1.1579987,-0.
 2109426\PG=C01 [X(C12H8Cl2)]\\@


 YOU CAN LEAD A BOY TO COLLEGE....
 BUT YOU CANNOT MAKE HIM THINK....
           ELBERT HUBBARD
 Job cpu time:       0 days 10 hours 50 minutes  9.8 seconds.
 Elapsed time:       0 days  3 hours 30 minutes 23.9 seconds.
 File lengths (MBytes):  RWF=     88 Int=      0 D2E=      0 Chk=     15 Scr=      1
 Normal termination of Gaussian 16 at Mon Mar 14 20:34:16 2022.
