 Entering Gaussian System, Link 0=g16
 Input=2,4prime,5-Trichlorobiphenyl.gjf
 Output=2,4prime,5-Trichlorobiphenyl.log
 Initial command:
 /usr/local/g16/l1.exe "/scratch/pkc/Gau-20543.inp" -scrdir="/scratch/pkc/"
 Entering Link 1 = /usr/local/g16/l1.exe PID=     20544.
  
 Copyright (c) 1988-2017, Gaussian, Inc.  All Rights Reserved.
  
 This is part of the Gaussian(R) 16 program.  It is based on
 the Gaussian(R) 09 system (copyright 2009, Gaussian, Inc.),
 the Gaussian(R) 03 system (copyright 2003, Gaussian, Inc.),
 the Gaussian(R) 98 system (copyright 1998, Gaussian, Inc.),
 the Gaussian(R) 94 system (copyright 1995, Gaussian, Inc.),
 the Gaussian 92(TM) system (copyright 1992, Gaussian, Inc.),
 the Gaussian 90(TM) system (copyright 1990, Gaussian, Inc.),
 the Gaussian 88(TM) system (copyright 1988, Gaussian, Inc.),
 the Gaussian 86(TM) system (copyright 1986, Carnegie Mellon
 University), and the Gaussian 82(TM) system (copyright 1983,
 Carnegie Mellon University). Gaussian is a federally registered
 trademark of Gaussian, Inc.
  
 This software contains proprietary and confidential information,
 including trade secrets, belonging to Gaussian, Inc.
  
 This software is provided under written license and may be
 used, copied, transmitted, or stored only in accord with that
 written license.
  
 The following legend is applicable only to US Government
 contracts under FAR:
  
                    RESTRICTED RIGHTS LEGEND
  
 Use, reproduction and disclosure by the US Government is
 subject to restrictions as set forth in subparagraphs (a)
 and (c) of the Commercial Computer Software - Restricted
 Rights clause in FAR 52.227-19.
  
 Gaussian, Inc.
 340 Quinnipiac St., Bldg. 40, Wallingford CT 06492
  
  
 ---------------------------------------------------------------
 Warning -- This program may not be used in any manner that
 competes with the business of Gaussian, Inc. or will provide
 assistance to any competitor of Gaussian, Inc.  The licensee
 of this program is prohibited from giving any competitor of
 Gaussian, Inc. access to this program.  By using this program,
 the user acknowledges that Gaussian, Inc. is engaged in the
 business of creating and licensing software in the field of
 computational chemistry and represents and warrants to the
 licensee that it is not a competitor of Gaussian, Inc. and that
 it will not use this program in any manner prohibited above.
 ---------------------------------------------------------------
  

 Cite this work as:
 Gaussian 16, Revision B.01,
 M. J. Frisch, G. W. Trucks, H. B. Schlegel, G. E. Scuseria, 
 M. A. Robb, J. R. Cheeseman, G. Scalmani, V. Barone, 
 G. A. Petersson, H. Nakatsuji, X. Li, M. Caricato, A. V. Marenich, 
 J. Bloino, B. G. Janesko, R. Gomperts, B. Mennucci, H. P. Hratchian, 
 J. V. Ortiz, A. F. Izmaylov, J. L. Sonnenberg, D. Williams-Young, 
 F. Ding, F. Lipparini, F. Egidi, J. Goings, B. Peng, A. Petrone, 
 T. Henderson, D. Ranasinghe, V. G. Zakrzewski, J. Gao, N. Rega, 
 G. Zheng, W. Liang, M. Hada, M. Ehara, K. Toyota, R. Fukuda, 
 J. Hasegawa, M. Ishida, T. Nakajima, Y. Honda, O. Kitao, H. Nakai, 
 T. Vreven, K. Throssell, J. A. Montgomery, Jr., J. E. Peralta, 
 F. Ogliaro, M. J. Bearpark, J. J. Heyd, E. N. Brothers, K. N. Kudin, 
 V. N. Staroverov, T. A. Keith, R. Kobayashi, J. Normand, 
 K. Raghavachari, A. P. Rendell, J. C. Burant, S. S. Iyengar, 
 J. Tomasi, M. Cossi, J. M. Millam, M. Klene, C. Adamo, R. Cammi, 
 J. W. Ochterski, R. L. Martin, K. Morokuma, O. Farkas, 
 J. B. Foresman, and D. J. Fox, Gaussian, Inc., Wallingford CT, 2016.
 
 ******************************************
 Gaussian 16:  EM64L-G16RevB.01 20-Dec-2017
                15-Mar-2022 
 ******************************************
 %mem=10GB
 %nprocshared=4
 Will use up to    4 processors via shared memory.
 --------------------------------
 # opt b3lyp/6-311+g(d,p) scf=xqc
 --------------------------------
 1/18=20,19=15,26=3,38=1/1,3;
 2/9=110,12=2,17=6,18=5,40=1/2;
 3/5=4,6=6,7=111,11=2,25=1,30=1,71=1,74=-5/1,2,3;
 4//1;
 5/5=2,8=3,13=1,38=5/2,8;
 6/7=2,8=2,9=2,10=2,28=1/1;
 7//1,2,3,16;
 1/18=20,19=15,26=3/3(2);
 2/9=110/2;
 99//99;
 2/9=110/2;
 3/5=4,6=6,7=111,11=2,25=1,30=1,71=1,74=-5/1,2,3;
 4/5=5,16=3,69=1/1;
 5/5=2,8=3,13=1,38=5/2,8;
 7//1,2,3,16;
 1/18=20,19=15,26=3/3(-5);
 2/9=110/2;
 6/7=2,8=2,9=2,10=2,19=2,28=1/1;
 99/9=1/99;
 -------------------
 Title Card Required
 -------------------
 Symbolic Z-matrix:
 Charge =  0 Multiplicity = 1
 C                    -1.39185  -0.76898  -0.00285 
 C                    -0.05947  -0.7391   -0.4362 
 C                     0.64843   0.47035  -0.44227 
 C                     0.02394   1.64992  -0.015 
 C                    -1.30844   1.62003   0.41835 
 C                    -2.01633   0.41058   0.42442 
 C                    -2.16975  -2.09805   0.00382 
 C                    -1.54526  -3.27762  -0.42345 
 C                    -2.25316  -4.48707  -0.41738 
 C                    -3.58554  -4.51695   0.01597 
 C                    -4.21002  -3.33739   0.44325 
 C                    -3.50213  -2.12794   0.43717 
 H                     0.41735  -1.63972  -0.76243 
 H                     0.56443   2.57336  -0.01963 
 H                    -1.78525   2.52066   0.74458 
 H                    -0.52796  -3.2548   -0.75432 
 H                    -1.77635  -5.38769  -0.74361 
 H                    -5.22732  -3.36021   0.77412 
 H                    -3.97894  -1.22731   0.76341 
 Cl                   -3.68965   0.37305   0.96866 
 Cl                   -4.47457  -6.03589   0.0236 
 Cl                    2.32175   0.50789  -0.9865 
 

 GradGradGradGradGradGradGradGradGradGradGradGradGradGradGradGradGradGrad
 Berny optimization.
 Initialization pass.
                           ----------------------------
                           !    Initial Parameters    !
                           ! (Angstroms and Degrees)  !
 --------------------------                            --------------------------
 ! Name  Definition              Value          Derivative Info.                !
 --------------------------------------------------------------------------------
 ! R1    R(1,2)                  1.4014         estimate D2E/DX2                !
 ! R2    R(1,6)                  1.4014         estimate D2E/DX2                !
 ! R3    R(1,7)                  1.54           estimate D2E/DX2                !
 ! R4    R(2,3)                  1.4014         estimate D2E/DX2                !
 ! R5    R(2,13)                 1.07           estimate D2E/DX2                !
 ! R6    R(3,4)                  1.4014         estimate D2E/DX2                !
 ! R7    R(3,22)                 1.76           estimate D2E/DX2                !
 ! R8    R(4,5)                  1.4014         estimate D2E/DX2                !
 ! R9    R(4,14)                 1.07           estimate D2E/DX2                !
 ! R10   R(5,6)                  1.4014         estimate D2E/DX2                !
 ! R11   R(5,15)                 1.07           estimate D2E/DX2                !
 ! R12   R(6,20)                 1.76           estimate D2E/DX2                !
 ! R13   R(7,8)                  1.4014         estimate D2E/DX2                !
 ! R14   R(7,12)                 1.4014         estimate D2E/DX2                !
 ! R15   R(8,9)                  1.4014         estimate D2E/DX2                !
 ! R16   R(8,16)                 1.07           estimate D2E/DX2                !
 ! R17   R(9,10)                 1.4014         estimate D2E/DX2                !
 ! R18   R(9,17)                 1.07           estimate D2E/DX2                !
 ! R19   R(10,11)                1.4014         estimate D2E/DX2                !
 ! R20   R(10,21)                1.76           estimate D2E/DX2                !
 ! R21   R(11,12)                1.4014         estimate D2E/DX2                !
 ! R22   R(11,18)                1.07           estimate D2E/DX2                !
 ! R23   R(12,19)                1.07           estimate D2E/DX2                !
 ! A1    A(2,1,6)              120.0            estimate D2E/DX2                !
 ! A2    A(2,1,7)              120.0            estimate D2E/DX2                !
 ! A3    A(6,1,7)              120.0            estimate D2E/DX2                !
 ! A4    A(1,2,3)              120.0            estimate D2E/DX2                !
 ! A5    A(1,2,13)             120.0            estimate D2E/DX2                !
 ! A6    A(3,2,13)             120.0            estimate D2E/DX2                !
 ! A7    A(2,3,4)              120.0            estimate D2E/DX2                !
 ! A8    A(2,3,22)             120.0            estimate D2E/DX2                !
 ! A9    A(4,3,22)             120.0            estimate D2E/DX2                !
 ! A10   A(3,4,5)              120.0            estimate D2E/DX2                !
 ! A11   A(3,4,14)             120.0            estimate D2E/DX2                !
 ! A12   A(5,4,14)             120.0            estimate D2E/DX2                !
 ! A13   A(4,5,6)              120.0            estimate D2E/DX2                !
 ! A14   A(4,5,15)             120.0            estimate D2E/DX2                !
 ! A15   A(6,5,15)             120.0            estimate D2E/DX2                !
 ! A16   A(1,6,5)              120.0            estimate D2E/DX2                !
 ! A17   A(1,6,20)             120.0            estimate D2E/DX2                !
 ! A18   A(5,6,20)             120.0            estimate D2E/DX2                !
 ! A19   A(1,7,8)              120.0            estimate D2E/DX2                !
 ! A20   A(1,7,12)             120.0            estimate D2E/DX2                !
 ! A21   A(8,7,12)             120.0            estimate D2E/DX2                !
 ! A22   A(7,8,9)              120.0            estimate D2E/DX2                !
 ! A23   A(7,8,16)             120.0            estimate D2E/DX2                !
 ! A24   A(9,8,16)             120.0            estimate D2E/DX2                !
 ! A25   A(8,9,10)             120.0            estimate D2E/DX2                !
 ! A26   A(8,9,17)             120.0            estimate D2E/DX2                !
 ! A27   A(10,9,17)            120.0            estimate D2E/DX2                !
 ! A28   A(9,10,11)            120.0            estimate D2E/DX2                !
 ! A29   A(9,10,21)            120.0            estimate D2E/DX2                !
 ! A30   A(11,10,21)           120.0            estimate D2E/DX2                !
 ! A31   A(10,11,12)           120.0            estimate D2E/DX2                !
 ! A32   A(10,11,18)           120.0            estimate D2E/DX2                !
 ! A33   A(12,11,18)           120.0            estimate D2E/DX2                !
 ! A34   A(7,12,11)            120.0            estimate D2E/DX2                !
 ! A35   A(7,12,19)            120.0            estimate D2E/DX2                !
 ! A36   A(11,12,19)           120.0            estimate D2E/DX2                !
 ! D1    D(6,1,2,3)              0.0001         estimate D2E/DX2                !
 ! D2    D(6,1,2,13)           180.0            estimate D2E/DX2                !
 ! D3    D(7,1,2,3)           -180.0            estimate D2E/DX2                !
 ! D4    D(7,1,2,13)            -0.0001         estimate D2E/DX2                !
 ! D5    D(2,1,6,5)             -0.0001         estimate D2E/DX2                !
 ! D6    D(2,1,6,20)           180.0            estimate D2E/DX2                !
 ! D7    D(7,1,6,5)            180.0            estimate D2E/DX2                !
 ! D8    D(7,1,6,20)             0.0            estimate D2E/DX2                !
 ! D9    D(2,1,7,8)             -0.0001         estimate D2E/DX2                !
 ! D10   D(2,1,7,12)           179.9998         estimate D2E/DX2                !
 ! D11   D(6,1,7,8)            179.9999         estimate D2E/DX2                !
 ! D12   D(6,1,7,12)            -0.0002         estimate D2E/DX2                !
 ! D13   D(1,2,3,4)              0.0            estimate D2E/DX2                !
 ! D14   D(1,2,3,22)           180.0            estimate D2E/DX2                !
 ! D15   D(13,2,3,4)          -179.9999         estimate D2E/DX2                !
 ! D16   D(13,2,3,22)            0.0001         estimate D2E/DX2                !
 ! D17   D(2,3,4,5)             -0.0001         estimate D2E/DX2                !
 ! D18   D(2,3,4,14)           180.0            estimate D2E/DX2                !
 ! D19   D(22,3,4,5)           179.9999         estimate D2E/DX2                !
 ! D20   D(22,3,4,14)            0.0            estimate D2E/DX2                !
 ! D21   D(3,4,5,6)              0.0001         estimate D2E/DX2                !
 ! D22   D(3,4,5,15)          -179.9999         estimate D2E/DX2                !
 ! D23   D(14,4,5,6)          -180.0            estimate D2E/DX2                !
 ! D24   D(14,4,5,15)            0.0            estimate D2E/DX2                !
 ! D25   D(4,5,6,1)              0.0            estimate D2E/DX2                !
 ! D26   D(4,5,6,20)           179.9999         estimate D2E/DX2                !
 ! D27   D(15,5,6,1)           180.0            estimate D2E/DX2                !
 ! D28   D(15,5,6,20)           -0.0001         estimate D2E/DX2                !
 ! D29   D(1,7,8,9)            179.9999         estimate D2E/DX2                !
 ! D30   D(1,7,8,16)             0.0001         estimate D2E/DX2                !
 ! D31   D(12,7,8,9)             0.0001         estimate D2E/DX2                !
 ! D32   D(12,7,8,16)         -179.9998         estimate D2E/DX2                !
 ! D33   D(1,7,12,11)         -179.9999         estimate D2E/DX2                !
 ! D34   D(1,7,12,19)            0.0            estimate D2E/DX2                !
 ! D35   D(8,7,12,11)           -0.0001         estimate D2E/DX2                !
 ! D36   D(8,7,12,19)          179.9999         estimate D2E/DX2                !
 ! D37   D(7,8,9,10)             0.0            estimate D2E/DX2                !
 ! D38   D(7,8,9,17)           180.0            estimate D2E/DX2                !
 ! D39   D(16,8,9,10)          179.9998         estimate D2E/DX2                !
 ! D40   D(16,8,9,17)           -0.0002         estimate D2E/DX2                !
 ! D41   D(8,9,10,11)            0.0            estimate D2E/DX2                !
 ! D42   D(8,9,10,21)         -179.9999         estimate D2E/DX2                !
 ! D43   D(17,9,10,11)         180.0            estimate D2E/DX2                !
 ! D44   D(17,9,10,21)           0.0001         estimate D2E/DX2                !
 ! D45   D(9,10,11,12)           0.0            estimate D2E/DX2                !
 ! D46   D(9,10,11,18)        -179.9998         estimate D2E/DX2                !
 ! D47   D(21,10,11,12)        179.9999         estimate D2E/DX2                !
 ! D48   D(21,10,11,18)          0.0001         estimate D2E/DX2                !
 ! D49   D(10,11,12,7)           0.0            estimate D2E/DX2                !
 ! D50   D(10,11,12,19)       -179.9999         estimate D2E/DX2                !
 ! D51   D(18,11,12,7)         179.9999         estimate D2E/DX2                !
 ! D52   D(18,11,12,19)         -0.0001         estimate D2E/DX2                !
 --------------------------------------------------------------------------------
 Trust Radius=3.00D-01 FncErr=1.00D-07 GrdErr=1.00D-06 EigMax=2.50D+02 EigMin=1.00D-04
 Number of steps in this run=    121 maximum allowed number of steps=    132.
 GradGradGradGradGradGradGradGradGradGradGradGradGradGradGradGradGradGrad

                          Input orientation:                          
 ---------------------------------------------------------------------
 Center     Atomic      Atomic             Coordinates (Angstroms)
 Number     Number       Type             X           Y           Z
 ---------------------------------------------------------------------
      1          6           0       -1.391846   -0.768984   -0.002851
      2          6           0       -0.059465   -0.739098   -0.436198
      3          6           0        0.648428    0.470353   -0.442270
      4          6           0        0.023941    1.649918   -0.014995
      5          6           0       -1.308441    1.620033    0.418350
      6          6           0       -2.016334    0.410582    0.424422
      7          6           0       -2.169751   -2.098051    0.003823
      8          6           0       -1.545264   -3.277616   -0.423452
      9          6           0       -2.253157   -4.487067   -0.417378
     10          6           0       -3.585537   -4.516954    0.015972
     11          6           0       -4.210024   -3.337389    0.443247
     12          6           0       -3.502131   -2.127938    0.437173
     13          1           0        0.417345   -1.639722   -0.762430
     14          1           0        0.564434    2.573361   -0.019631
     15          1           0       -1.785251    2.520657    0.744581
     16          1           0       -0.527961   -3.254798   -0.754322
     17          1           0       -1.776347   -5.387691   -0.743612
     18          1           0       -5.227325   -3.360208    0.774122
     19          1           0       -3.978940   -1.227314    0.763409
     20         17           0       -3.689655    0.373049    0.968656
     21         17           0       -4.474569   -6.035889    0.023603
     22         17           0        2.321749    0.507886   -0.986504
 ---------------------------------------------------------------------
                    Distance matrix (angstroms):
                    1          2          3          4          5
     1  C    0.000000
     2  C    1.401400   0.000000
     3  C    2.427296   1.401400   0.000000
     4  C    2.802800   2.427296   1.401400   0.000000
     5  C    2.427296   2.802800   2.427296   1.401400   0.000000
     6  C    1.401400   2.427296   2.802800   2.427296   1.401400
     7  C    1.540000   2.548270   3.838989   4.342800   3.838989
     8  C    2.548270   2.941400   4.342800   5.187469   4.975106
     9  C    3.838989   4.342800   5.744200   6.558176   6.235992
    10  C    4.342800   5.187469   6.558176   7.145600   6.558176
    11  C    3.838989   4.975106   6.235992   6.558176   5.744200
    12  C    2.548270   3.813607   4.975106   5.187469   4.342800
    13  H    2.146700   1.070000   2.146700   3.396345   3.872800
    14  H    3.872800   3.396345   2.146700   1.070000   2.146700
    15  H    3.396345   3.872800   3.396345   2.146700   1.070000
    16  H    2.736837   2.578650   3.918930   4.990735   5.074276
    17  H    4.693509   4.965039   6.347206   7.300676   7.118798
    18  H    4.693509   5.919617   7.118798   7.300676   6.347206
    19  H    2.736837   4.127917   5.074276   4.990735   3.918930
    20  Cl   2.743718   4.048303   4.562800   4.048303   2.743718
    21  Cl   6.102800   6.910901   8.294174   8.905600   8.294174
    22  Cl   4.048303   2.743718   1.760000   2.743718   4.048303
                    6          7          8          9         10
     6  C    0.000000
     7  C    2.548270   0.000000
     8  C    3.813607   1.401400   0.000000
     9  C    4.975106   2.427296   1.401400   0.000000
    10  C    5.187469   2.802800   2.427296   1.401400   0.000000
    11  C    4.342800   2.427296   2.802800   2.427296   1.401400
    12  C    2.941400   1.401400   2.427296   2.802800   2.427296
    13  H    3.396345   2.736837   2.578650   3.918930   4.990735
    14  H    3.396345   5.412800   6.232802   7.612271   8.215600
    15  H    2.146700   4.693509   5.919617   7.118798   7.300676
    16  H    4.127917   2.146700   1.070000   2.146700   3.396345
    17  H    5.919617   3.396345   2.146700   1.070000   2.146700
    18  H    4.965039   3.396345   3.872800   3.396345   2.146700
    19  H    2.578650   2.146700   3.396345   3.872800   3.396345
    20  Cl   1.760000   3.057342   4.456874   5.254079   4.983028
    21  Cl   6.910901   4.562800   4.048303   2.743718   1.760000
    22  Cl   4.562800   5.286324   5.440665   6.797295   7.819846
                   11         12         13         14         15
    11  C    0.000000
    12  C    1.401400   0.000000
    13  H    5.074276   4.127917   0.000000
    14  H    7.612271   6.232802   4.280590   0.000000
    15  H    6.347206   4.965039   4.942800   2.471400   0.000000
    16  H    3.872800   3.396345   1.871400   5.974992   6.097816
    17  H    3.396345   3.872800   4.342800   8.329571   8.047159
    18  H    1.070000   2.146700   6.097816   8.329571   6.814200
    19  H    2.146700   1.070000   4.671787   5.974992   4.342800
    20  Cl   3.783409   2.563702   4.890332   4.890332   2.879094
    21  Cl   2.743718   4.048303   6.623817   9.975600   8.998151
    22  Cl   7.713260   6.549198   2.879094   2.879094   4.890332
                   16         17         18         19         20
    16  H    0.000000
    17  H    2.471400   0.000000
    18  H    4.942800   4.280590   0.000000
    19  H    4.280590   4.942800   2.471400   0.000000
    20  Cl   5.111382   6.307038   4.042212   1.639199   0.000000
    21  Cl   4.890332   2.879094   2.879094   4.890332   6.525618
    22  Cl   4.725732   7.184095   8.663168   6.765486   6.322800
                   21         22
    21  Cl   0.000000
    22  Cl   9.488480   0.000000
 Stoichiometry    C12H7Cl3
 Framework group  C1[X(C12H7Cl3)]
 Deg. of freedom    60
 Full point group                 C1      NOp   1
 Largest Abelian subgroup         C1      NOp   1
 Largest concise Abelian subgroup C1      NOp   1
                         Standard orientation:                         
 ---------------------------------------------------------------------
 Center     Atomic      Atomic             Coordinates (Angstroms)
 Number     Number       Type             X           Y           Z
 ---------------------------------------------------------------------
      1          6           0       -0.885355    0.145024    0.000001
      2          6           0       -1.773024   -0.939395    0.000001
      3          6           0       -3.155994   -0.712860   -0.000001
      4          6           0       -3.651293    0.598094   -0.000003
      5          6           0       -2.763624    1.682513   -0.000001
      6          6           0       -1.380655    1.455978    0.000001
      7          6           0        0.634392   -0.103915    0.000002
      8          6           0        1.129691   -1.414869    0.000005
      9          6           0        2.512661   -1.641404    0.000004
     10          6           0        3.400330   -0.556985    0.000001
     11          6           0        2.905030    0.753969   -0.000002
     12          6           0        1.522061    0.980504   -0.000002
     13          1           0       -1.394852   -1.940338    0.000001
     14          1           0       -4.707221    0.771058   -0.000004
     15          1           0       -3.141796    2.683455   -0.000000
     16          1           0        0.451936   -2.242847    0.000004
     17          1           0        2.890833   -2.642346    0.000006
     18          1           0        3.582786    1.581947   -0.000007
     19          1           0        1.143889    1.981446   -0.000005
     20         17           0       -0.265842    2.817886    0.000002
     21         17           0        5.137183   -0.841487   -0.000003
     22         17           0       -4.270806   -2.074768   -0.000001
 ---------------------------------------------------------------------
 Rotational constants (GHZ):           0.7868322           0.2083824           0.1647504
 Standard basis: 6-311+G(d,p) (5D, 7F)
 There are   411 symmetry adapted cartesian basis functions of A   symmetry.
 There are   396 symmetry adapted basis functions of A   symmetry.
   396 basis functions,   647 primitive gaussians,   411 cartesian basis functions
    65 alpha electrons       65 beta electrons
       nuclear repulsion energy      1171.3524190954 Hartrees.
 NAtoms=   22 NActive=   22 NUniq=   22 SFac= 1.00D+00 NAtFMM=   60 NAOKFM=F Big=F
 Integral buffers will be    131072 words long.
 Raffenetti 2 integral format.
 Two-electron integral symmetry is turned on.
 One-electron integrals computed using PRISM.
 NBasis=   396 RedAO= T EigKep=  1.06D-06  NBF=   396
 NBsUse=   392 1.00D-06 EigRej=  6.69D-07 NBFU=   392
 ExpMin= 4.38D-02 ExpMax= 1.06D+05 ExpMxC= 3.62D+03 IAcc=3 IRadAn=         5 AccDes= 0.00D+00
 Harris functional with IExCor=  402 and IRadAn=       5 diagonalized for initial guess.
 HarFok:  IExCor=  402 AccDes= 0.00D+00 IRadAn=         5 IDoV= 1 UseB2=F ITyADJ=14
 ICtDFT=  3500011 ScaDFX=  1.000000  1.000000  1.000000  1.000000
 FoFCou: FMM=F IPFlag=           0 FMFlag=      100000 FMFlg1=           0
         NFxFlg=           0 DoJE=T BraDBF=F KetDBF=T FulRan=T
         wScrn=  0.000000 ICntrl=       500 IOpCl=  0 I1Cent=   200000004 NGrid=           0
         NMat0=    1 NMatS0=      1 NMatT0=    0 NMatD0=    1 NMtDS0=    0 NMtDT0=    0
 Petite list used in FoFCou.
 Requested convergence on RMS density matrix=1.00D-08 within  32 cycles.
 Requested convergence on MAX density matrix=1.00D-06.
 Requested convergence on             energy=1.00D-06.
 No special actions if energy rises.
 SCF Done:  E(RB3LYP) =  -1842.22441659     A.U. after   15 cycles
            NFock= 15  Conv=0.88D-08     -V/T= 2.0028
 QCSCF skips out because SCF is already converged.

 **********************************************************************

            Population analysis using the SCF Density.

 **********************************************************************

 Orbital symmetries:
       Occupied  (A) (A) (A) (A) (A) (A) (A) (A) (A) (A) (A) (A)
                 (A) (A) (A) (A) (A) (A) (A) (A) (A) (A) (A) (A)
                 (A) (A) (A) (A) (A) (A) (A) (A) (A) (A) (A) (A)
                 (A) (A) (A) (A) (A) (A) (A) (A) (A) (A) (A) (A)
                 (A) (A) (A) (A) (A) (A) (A) (A) (A) (A) (A) (A)
                 (A) (A) (A) (A) (A)
       Virtual   (A) (A) (A) (A) (A) (A) (A) (A) (A) (A) (A) (A)
                 (A) (A) (A) (A) (A) (A) (A) (A) (A) (A) (A) (A)
                 (A) (A) (A) (A) (A) (A) (A) (A) (A) (A) (A) (A)
                 (A) (A) (A) (A) (A) (A) (A) (A) (A) (A) (A) (A)
                 (A) (A) (A) (A) (A) (A) (A) (A) (A) (A) (A) (A)
                 (A) (A) (A) (A) (A) (A) (A) (A) (A) (A) (A) (A)
                 (A) (A) (A) (A) (A) (A) (A) (A) (A) (A) (A) (A)
                 (A) (A) (A) (A) (A) (A) (A) (A) (A) (A) (A) (A)
                 (A) (A) (A) (A) (A) (A) (A) (A) (A) (A) (A) (A)
                 (A) (A) (A) (A) (A) (A) (A) (A) (A) (A) (A) (A)
                 (A) (A) (A) (A) (A) (A) (A) (A) (A) (A) (A) (A)
                 (A) (A) (A) (A) (A) (A) (A) (A) (A) (A) (A) (A)
                 (A) (A) (A) (A) (A) (A) (A) (A) (A) (A) (A) (A)
                 (A) (A) (A) (A) (A) (A) (A) (A) (A) (A) (A) (A)
                 (A) (A) (A) (A) (A) (A) (A) (A) (A) (A) (A) (A)
                 (A) (A) (A) (A) (A) (A) (A) (A) (A) (A) (A) (A)
                 (A) (A) (A) (A) (A) (A) (A) (A) (A) (A) (A) (A)
                 (A) (A) (A) (A) (A) (A) (A) (A) (A) (A) (A) (A)
                 (A) (A) (A) (A) (A) (A) (A) (A) (A) (A) (A) (A)
                 (A) (A) (A) (A) (A) (A) (A) (A) (A) (A) (A) (A)
                 (A) (A) (A) (A) (A) (A) (A) (A) (A) (A) (A) (A)
                 (A) (A) (A) (A) (A) (A) (A) (A) (A) (A) (A) (A)
                 (A) (A) (A) (A) (A) (A) (A) (A) (A) (A) (A) (A)
                 (A) (A) (A) (A) (A) (A) (A) (A) (A) (A) (A) (A)
                 (A) (A) (A) (A) (A) (A) (A) (A) (A) (A) (A) (A)
                 (A) (A) (A) (A) (A) (A) (A) (A) (A) (A) (A) (A)
                 (A) (A) (A) (A) (A) (A) (A) (A) (A) (A) (A) (A)
                 (A) (A) (A)
 The electronic state is 1-A.
 Alpha  occ. eigenvalues -- -101.57477-101.57065-101.55895 -10.26430 -10.26322
 Alpha  occ. eigenvalues --  -10.24817 -10.22886 -10.21585 -10.21192 -10.21161
 Alpha  occ. eigenvalues --  -10.21047 -10.19852 -10.19795 -10.19330 -10.17392
 Alpha  occ. eigenvalues --   -9.49270  -9.48500  -9.47339  -7.25666  -7.24970
 Alpha  occ. eigenvalues --   -7.24723  -7.24710  -7.23980  -7.23946  -7.23796
 Alpha  occ. eigenvalues --   -7.22827  -7.22789  -0.93282  -0.90208  -0.89661
 Alpha  occ. eigenvalues --   -0.85361  -0.84510  -0.79565  -0.76889  -0.75189
 Alpha  occ. eigenvalues --   -0.73663  -0.66068  -0.63712  -0.62280  -0.60417
 Alpha  occ. eigenvalues --   -0.54697  -0.52963  -0.51546  -0.49998  -0.48416
 Alpha  occ. eigenvalues --   -0.47154  -0.45933  -0.45171  -0.44954  -0.43671
 Alpha  occ. eigenvalues --   -0.41156  -0.40411  -0.40258  -0.38977  -0.38856
 Alpha  occ. eigenvalues --   -0.37487  -0.35223  -0.33738  -0.33273  -0.32418
 Alpha  occ. eigenvalues --   -0.29903  -0.28474  -0.27371  -0.26787  -0.24492
 Alpha virt. eigenvalues --   -0.06788  -0.05265  -0.03048  -0.01757  -0.00678
 Alpha virt. eigenvalues --   -0.00585   0.00081   0.00658   0.01176   0.01958
 Alpha virt. eigenvalues --    0.02912   0.03311   0.04111   0.04607   0.05529
 Alpha virt. eigenvalues --    0.05565   0.06030   0.06223   0.06361   0.07888
 Alpha virt. eigenvalues --    0.08012   0.08212   0.08917   0.09346   0.10101
 Alpha virt. eigenvalues --    0.10442   0.10548   0.11252   0.11711   0.11778
 Alpha virt. eigenvalues --    0.12628   0.13210   0.13559   0.13611   0.13976
 Alpha virt. eigenvalues --    0.14587   0.14698   0.15142   0.15383   0.16211
 Alpha virt. eigenvalues --    0.16823   0.16949   0.16969   0.17469   0.17897
 Alpha virt. eigenvalues --    0.18073   0.19047   0.19304   0.19789   0.20128
 Alpha virt. eigenvalues --    0.20232   0.20742   0.21187   0.21385   0.21857
 Alpha virt. eigenvalues --    0.21961   0.22938   0.23126   0.23138   0.23688
 Alpha virt. eigenvalues --    0.24086   0.24718   0.24974   0.26098   0.26683
 Alpha virt. eigenvalues --    0.27331   0.27868   0.28851   0.29080   0.30065
 Alpha virt. eigenvalues --    0.30310   0.31380   0.32068   0.32136   0.33302
 Alpha virt. eigenvalues --    0.33762   0.34667   0.35580   0.36159   0.36733
 Alpha virt. eigenvalues --    0.39917   0.41720   0.42890   0.43592   0.44245
 Alpha virt. eigenvalues --    0.44504   0.45006   0.45268   0.46285   0.46367
 Alpha virt. eigenvalues --    0.47937   0.50174   0.50987   0.51051   0.51831
 Alpha virt. eigenvalues --    0.51986   0.52494   0.53636   0.53646   0.55095
 Alpha virt. eigenvalues --    0.55683   0.56392   0.57430   0.58170   0.58187
 Alpha virt. eigenvalues --    0.59087   0.59408   0.61278   0.61438   0.62034
 Alpha virt. eigenvalues --    0.63283   0.64174   0.65082   0.65795   0.66485
 Alpha virt. eigenvalues --    0.67239   0.67499   0.68057   0.68840   0.69315
 Alpha virt. eigenvalues --    0.70153   0.72510   0.74947   0.75691   0.79650
 Alpha virt. eigenvalues --    0.79920   0.80714   0.81986   0.82660   0.83004
 Alpha virt. eigenvalues --    0.83744   0.84375   0.84754   0.84768   0.85443
 Alpha virt. eigenvalues --    0.85839   0.86276   0.86716   0.86854   0.88346
 Alpha virt. eigenvalues --    0.89055   0.89207   0.90304   0.91388   0.92192
 Alpha virt. eigenvalues --    0.93611   0.94107   0.94364   0.94770   0.95951
 Alpha virt. eigenvalues --    0.95954   0.97818   0.98647   0.98930   1.00072
 Alpha virt. eigenvalues --    1.00522   1.02235   1.02935   1.05092   1.06294
 Alpha virt. eigenvalues --    1.07221   1.07345   1.09393   1.11378   1.11950
 Alpha virt. eigenvalues --    1.12928   1.13974   1.17985   1.21478   1.23247
 Alpha virt. eigenvalues --    1.24563   1.24926   1.26954   1.27662   1.28476
 Alpha virt. eigenvalues --    1.29818   1.33612   1.34116   1.38649   1.44483
 Alpha virt. eigenvalues --    1.45072   1.47524   1.49960   1.50724   1.52687
 Alpha virt. eigenvalues --    1.53817   1.54792   1.55171   1.57737   1.59015
 Alpha virt. eigenvalues --    1.59049   1.60589   1.62033   1.64399   1.66333
 Alpha virt. eigenvalues --    1.66534   1.70313   1.71695   1.71990   1.72944
 Alpha virt. eigenvalues --    1.76698   1.77040   1.83520   1.84082   1.85112
 Alpha virt. eigenvalues --    1.85192   1.87584   1.87773   1.90635   1.92810
 Alpha virt. eigenvalues --    1.93695   1.93774   1.94187   1.94621   1.96786
 Alpha virt. eigenvalues --    1.97395   1.99506   2.02634   2.03371   2.03704
 Alpha virt. eigenvalues --    2.07097   2.07341   2.07810   2.09258   2.14175
 Alpha virt. eigenvalues --    2.21720   2.22505   2.24885   2.25941   2.26347
 Alpha virt. eigenvalues --    2.26431   2.27978   2.28638   2.33522   2.34465
 Alpha virt. eigenvalues --    2.35840   2.39334   2.40491   2.42199   2.43128
 Alpha virt. eigenvalues --    2.45559   2.50462   2.51856   2.53785   2.56246
 Alpha virt. eigenvalues --    2.57369   2.61191   2.61304   2.64204   2.64448
 Alpha virt. eigenvalues --    2.65589   2.67934   2.69005   2.70322   2.71236
 Alpha virt. eigenvalues --    2.72707   2.73883   2.74227   2.74860   2.75717
 Alpha virt. eigenvalues --    2.77171   2.78945   2.80847   2.81594   2.83758
 Alpha virt. eigenvalues --    2.84043   2.85753   2.91549   2.93402   2.93508
 Alpha virt. eigenvalues --    2.97216   3.05211   3.06855   3.06971   3.09128
 Alpha virt. eigenvalues --    3.12836   3.14886   3.19746   3.21743   3.26216
 Alpha virt. eigenvalues --    3.31767   3.35980   3.39919   3.41796   3.50541
 Alpha virt. eigenvalues --    3.52885   3.56824   3.61325   3.66814   3.76718
 Alpha virt. eigenvalues --    3.80677   3.87166   4.01758   4.04671   4.12925
 Alpha virt. eigenvalues --    4.17210   4.21171   4.46845   4.79748   4.83617
 Alpha virt. eigenvalues --    9.76656   9.77773   9.86857  23.44349  23.60915
 Alpha virt. eigenvalues --   23.82940  23.86623  23.91748  23.96342  23.97412
 Alpha virt. eigenvalues --   24.01675  24.04179  24.07573  24.10727  24.14975
 Alpha virt. eigenvalues --   25.81031  25.82642  25.84247  26.12445  26.13404
 Alpha virt. eigenvalues --   26.59377  26.59837  26.65876  26.78953 215.75754
 Alpha virt. eigenvalues --  215.76859 215.89151
          Condensed to atoms (all electrons):
               1          2          3          4          5          6
     1  C   14.864560   0.462032  -3.176829  -0.760151   0.689544  -5.823048
     2  C    0.462032  16.070720  -0.824622  -4.381893  -0.998640  -3.079100
     3  C   -3.176829  -0.824622  18.609388  -6.164878   3.105613  -1.880659
     4  C   -0.760151  -4.381893  -6.164878  16.398481  -0.485670   0.903031
     5  C    0.689544  -0.998640   3.105613  -0.485670  26.092755 -16.294315
     6  C   -5.823048  -3.079100  -1.880659   0.903031 -16.294315  33.047062
     7  C    3.787599  -2.794337  -0.875275   0.507275  -3.556360   1.079669
     8  C    0.823271   5.325695  -3.011507  -0.042283  -0.776337  -6.938856
     9  C   -0.063930  -0.415457   0.244602   0.007236   0.098776  -0.271741
    10  C   -0.936144   0.065280  -0.419514   0.041937  -0.445815  -0.654485
    11  C   -1.397522  -1.022114   0.022402   0.033705   0.834135   1.796314
    12  C   -2.190986  -3.040768   0.100764   0.822557  -1.573908   4.533959
    13  H    0.055138   0.258832  -0.150025   0.104393  -0.031983  -0.073008
    14  H    0.045144   0.034695   0.028761   0.299555  -0.020906  -0.041598
    15  H    0.061004  -0.033086  -0.055363  -0.011929   0.328922   0.059937
    16  H    0.063504   0.003976   0.020044  -0.011949   0.013384   0.032955
    17  H    0.005111   0.006688  -0.001625  -0.000125   0.000685  -0.000742
    18  H    0.008921   0.003389   0.000420   0.000035  -0.005041  -0.001776
    19  H   -0.063739  -0.033523   0.001011   0.016475   0.271193   0.046035
    20  Cl   0.163200   0.597217   0.060633  -0.085927  -1.250675  -0.516447
    21  Cl  -0.054755  -0.015888  -0.004125   0.000444  -0.009421  -0.034900
    22  Cl  -0.340405   0.489663  -0.559687  -0.449701   0.399102  -0.049958
               7          8          9         10         11         12
     1  C    3.787599   0.823271  -0.063930  -0.936144  -1.397522  -2.190986
     2  C   -2.794337   5.325695  -0.415457   0.065280  -1.022114  -3.040768
     3  C   -0.875275  -3.011507   0.244602  -0.419514   0.022402   0.100764
     4  C    0.507275  -0.042283   0.007236   0.041937   0.033705   0.822557
     5  C   -3.556360  -0.776337   0.098776  -0.445815   0.834135  -1.573908
     6  C    1.079669  -6.938856  -0.271741  -0.654485   1.796314   4.533959
     7  C   16.643089  -5.621880   2.187598  -4.339086  -2.547687   1.226225
     8  C   -5.621880  24.406577  -2.461621   1.680700  -2.899681  -4.760585
     9  C    2.187598  -2.461621  16.410293  -2.331838  -4.777996  -2.237717
    10  C   -4.339086   1.680700  -2.331838  14.372724   1.228993  -2.024908
    11  C   -2.547687  -2.899681  -4.777996   1.228993  13.305939   1.774646
    12  C    1.226225  -4.760585  -2.237717  -2.024908   1.774646  14.655872
    13  H    0.036092   0.103314   0.033601   0.006432  -0.005888   0.005284
    14  H    0.003193   0.003407   0.000201   0.000023  -0.000039  -0.001868
    15  H    0.007429  -0.002632   0.000199   0.000130   0.000015   0.009257
    16  H    0.108679   0.216813  -0.038077  -0.054091  -0.010484  -0.026171
    17  H   -0.005816  -0.076882   0.282776   0.099997   0.050545  -0.003244
    18  H    0.072558  -0.019530   0.066487   0.015796   0.269647  -0.052759
    19  H   -0.224387  -0.022102  -0.052000  -0.030994   0.130512   0.426232
    20  Cl   0.543283   0.419005  -0.020743   0.000050  -0.722112  -0.731564
    21  Cl  -0.302302   0.269763   0.059268  -1.111848   0.269476   0.107881
    22  Cl  -0.139855  -0.086047   0.018187  -0.007947   0.001312  -0.054425
              13         14         15         16         17         18
     1  C    0.055138   0.045144   0.061004   0.063504   0.005111   0.008921
     2  C    0.258832   0.034695  -0.033086   0.003976   0.006688   0.003389
     3  C   -0.150025   0.028761  -0.055363   0.020044  -0.001625   0.000420
     4  C    0.104393   0.299555  -0.011929  -0.011949  -0.000125   0.000035
     5  C   -0.031983  -0.020906   0.328922   0.013384   0.000685  -0.005041
     6  C   -0.073008  -0.041598   0.059937   0.032955  -0.000742  -0.001776
     7  C    0.036092   0.003193   0.007429   0.108679  -0.005816   0.072558
     8  C    0.103314   0.003407  -0.002632   0.216813  -0.076882  -0.019530
     9  C    0.033601   0.000201   0.000199  -0.038077   0.282776   0.066487
    10  C    0.006432   0.000023   0.000130  -0.054091   0.099997   0.015796
    11  C   -0.005888  -0.000039   0.000015  -0.010484   0.050545   0.269647
    12  C    0.005284  -0.001868   0.009257  -0.026171  -0.003244  -0.052759
    13  H    0.535039  -0.000345   0.000074   0.002315   0.000033   0.000001
    14  H   -0.000345   0.506928  -0.007671   0.000000  -0.000000  -0.000000
    15  H    0.000074  -0.007671   0.507747   0.000001   0.000000   0.000001
    16  H    0.002315   0.000000   0.000001   0.561600  -0.008059   0.000098
    17  H    0.000033  -0.000000   0.000000  -0.008059   0.517806  -0.000381
    18  H    0.000001  -0.000000   0.000001   0.000098  -0.000381   0.528287
    19  H   -0.000103  -0.000002  -0.000044  -0.000236   0.000121  -0.014997
    20  Cl  -0.000316   0.002173  -0.018661   0.000047  -0.000110   0.003454
    21  Cl   0.000051   0.000000  -0.000000  -0.000400  -0.013323  -0.012994
    22  Cl  -0.023670  -0.004782   0.000103   0.000504   0.000015  -0.000001
              19         20         21         22
     1  C   -0.063739   0.163200  -0.054755  -0.340405
     2  C   -0.033523   0.597217  -0.015888   0.489663
     3  C    0.001011   0.060633  -0.004125  -0.559687
     4  C    0.016475  -0.085927   0.000444  -0.449701
     5  C    0.271193  -1.250675  -0.009421   0.399102
     6  C    0.046035  -0.516447  -0.034900  -0.049958
     7  C   -0.224387   0.543283  -0.302302  -0.139855
     8  C   -0.022102   0.419005   0.269763  -0.086047
     9  C   -0.052000  -0.020743   0.059268   0.018187
    10  C   -0.030994   0.000050  -1.111848  -0.007947
    11  C    0.130512  -0.722112   0.269476   0.001312
    12  C    0.426232  -0.731564   0.107881  -0.054425
    13  H   -0.000103  -0.000316   0.000051  -0.023670
    14  H   -0.000002   0.002173   0.000000  -0.004782
    15  H   -0.000044  -0.018661  -0.000000   0.000103
    16  H   -0.000236   0.000047  -0.000400   0.000504
    17  H    0.000121  -0.000110  -0.013323   0.000015
    18  H   -0.014997   0.003454  -0.012994  -0.000001
    19  H    0.705774  -0.290132   0.000316   0.000185
    20  Cl  -0.290132  18.229757   0.000209  -0.005723
    21  Cl   0.000316   0.000209  17.446060  -0.000023
    22  Cl   0.000185  -0.005723  -0.000023  17.390865
 Mulliken charges:
               1
     1  C   -0.221520
     2  C   -0.678761
     3  C    0.930471
     4  C   -0.740617
     5  C   -0.385037
     6  C    0.161669
     7  C    0.204298
     8  C   -0.528605
     9  C   -0.738107
    10  C    0.844606
    11  C   -0.334116
    12  C   -0.963773
    13  H    0.144740
    14  H    0.153130
    15  H    0.154567
    16  H    0.125551
    17  H    0.146530
    18  H    0.138387
    19  H    0.134405
    20  Cl   0.623381
    21  Cl   0.406512
    22  Cl   0.422289
 Sum of Mulliken charges =  -0.00000
 Mulliken charges with hydrogens summed into heavy atoms:
               1
     1  C   -0.221520
     2  C   -0.534021
     3  C    0.930471
     4  C   -0.587488
     5  C   -0.230470
     6  C    0.161669
     7  C    0.204298
     8  C   -0.403054
     9  C   -0.591576
    10  C    0.844606
    11  C   -0.195729
    12  C   -0.829368
    20  Cl   0.623381
    21  Cl   0.406512
    22  Cl   0.422289
 Electronic spatial extent (au):  <R**2>=           5774.6219
 Charge=             -0.0000 electrons
 Dipole moment (field-independent basis, Debye):
    X=             -1.7258    Y=              0.7672    Z=             -0.0000  Tot=              1.8887
 Quadrupole moment (field-independent basis, Debye-Ang):
   XX=           -113.4515   YY=           -101.5310   ZZ=           -112.6350
   XY=             -3.0690   XZ=             -0.0000   YZ=             -0.0000
 Traceless Quadrupole moment (field-independent basis, Debye-Ang):
   XX=             -4.2456   YY=              7.6748   ZZ=             -3.4292
   XY=             -3.0690   XZ=             -0.0000   YZ=             -0.0000
 Octapole moment (field-independent basis, Debye-Ang**2):
  XXX=            -54.6681  YYY=             -4.7031  ZZZ=             -0.0000  XYY=              8.7267
  XXY=             39.8008  XXZ=             -0.0001  XZZ=              0.8222  YZZ=              0.5862
  YYZ=             -0.0000  XYZ=             -0.0001
 Hexadecapole moment (field-independent basis, Debye-Ang**3):
 XXXX=          -6033.5181 YYYY=          -1597.8491 ZZZZ=           -132.4846 XXXY=            -39.2125
 XXXZ=             -0.0000 YYYX=             15.4170 YYYZ=             -0.0001 ZZZX=             -0.0001
 ZZZY=              0.0001 XXYY=          -1212.2844 XXZZ=          -1055.9499 YYZZ=           -311.2382
 XXYZ=             -0.0002 YYXZ=             -0.0000 ZZXY=             11.0706
 N-N= 1.171352419095D+03 E-N=-6.694554989255D+03  KE= 1.837141590703D+03
 Calling FoFJK, ICntrl=      2127 FMM=F ISym2X=0 I1Cent= 0 IOpClX= 0 NMat=1 NMatS=1 NMatT=0.
 ***** Axes restored to original set *****
 -------------------------------------------------------------------
 Center     Atomic                   Forces (Hartrees/Bohr)
 Number     Number              X              Y              Z
 -------------------------------------------------------------------
      1        6          -0.022959066   -0.032370571    0.001484386
      2        6           0.002003587    0.022069485    0.003484872
      3        6          -0.012368094   -0.004310292    0.003265339
      4        6          -0.006350212   -0.011079537    0.000011034
      5        6           0.003997094   -0.013271100   -0.003809242
      6        6           0.016240338    0.004008109   -0.004597634
      7        6           0.017446467    0.025044967   -0.001044031
      8        6          -0.021027177   -0.007088016    0.005596417
      9        6          -0.002599721    0.010611944    0.002849454
     10        6           0.003752986    0.011461129    0.000916104
     11        6           0.016609911   -0.005853731   -0.006571505
     12        6          -0.002303352   -0.056472545   -0.009847107
     13        1           0.004720803   -0.003614232   -0.002234129
     14        1           0.003987078    0.007710653    0.000134576
     15        1          -0.003893941    0.007508994    0.002693185
     16        1           0.006359188   -0.004667734   -0.002971834
     17        1           0.003661960   -0.007910166   -0.002692023
     18        1          -0.008978828   -0.000730652    0.002820854
     19        1          -0.004451776   -0.049607582   -0.007849854
     20       17           0.008429398    0.107135486    0.017343447
     21       17           0.001589234    0.001488347   -0.000244116
     22       17          -0.003865876   -0.000062958    0.001261805
 -------------------------------------------------------------------
 Cartesian Forces:  Max     0.107135486 RMS     0.018732432

 GradGradGradGradGradGradGradGradGradGradGradGradGradGradGradGradGradGrad
 Berny optimization.
 FormGI is forming the generalized inverse of G from B-inverse, IUseBI=4.
 Internal  Forces:  Max     0.280027997 RMS     0.050998584
 Search for a local minimum.
 Step number   1 out of a maximum of  121
 All quantities printed in internal units (Hartrees-Bohrs-Radians)
 Mixed Optimization -- RFO/linear search
 Second derivative matrix not updated -- first step.
 ITU=  0
     Eigenvalues ---    0.00237   0.01506   0.01506   0.02070   0.02070
     Eigenvalues ---    0.02070   0.02070   0.02070   0.02070   0.02070
     Eigenvalues ---    0.02070   0.02070   0.02070   0.02070   0.02070
     Eigenvalues ---    0.02070   0.02070   0.02070   0.02070   0.16000
     Eigenvalues ---    0.16000   0.16000   0.16000   0.16000   0.16000
     Eigenvalues ---    0.16000   0.22000   0.22375   0.22981   0.23491
     Eigenvalues ---    0.24000   0.24610   0.25000   0.25000   0.25000
     Eigenvalues ---    0.25000   0.25000   0.28519   0.29539   0.29539
     Eigenvalues ---    0.29539   0.37230   0.37230   0.37230   0.37230
     Eigenvalues ---    0.37230   0.37230   0.37230   0.41268   0.41393
     Eigenvalues ---    0.41640   0.41697   0.45389   0.45389   0.45389
     Eigenvalues ---    0.45389   0.45389   0.45389   0.45389   0.45389
 RFO step:  Lambda=-4.22308732D-01 EMin= 2.36824243D-03
 Linear search not attempted -- first point.
 Maximum step size (   0.300) exceeded in Quadratic search.
    -- Step size scaled by   0.381
 Iteration  1 RMS(Cart)=  0.19704139 RMS(Int)=  0.00993459
 Iteration  2 RMS(Cart)=  0.03576895 RMS(Int)=  0.00030073
 Iteration  3 RMS(Cart)=  0.00055863 RMS(Int)=  0.00004560
 Iteration  4 RMS(Cart)=  0.00000018 RMS(Int)=  0.00004560
 Variable       Old X    -DE/DX   Delta X   Delta X   Delta X     New X
                                 (Linear)    (Quad)   (Total)
    R1        2.64826   0.01885   0.00000   0.00884   0.00894   2.65720
    R2        2.64826   0.12122   0.00000   0.05391   0.05399   2.70225
    R3        2.91018   0.06709   0.00000   0.03613   0.03613   2.94630
    R4        2.64826  -0.02437   0.00000  -0.01116  -0.01114   2.63713
    R5        2.02201   0.00583   0.00000   0.00279   0.00279   2.02480
    R6        2.64826  -0.04175   0.00000  -0.01936  -0.01944   2.62882
    R7        3.32592  -0.00407   0.00000  -0.00216  -0.00216   3.32376
    R8        2.64826  -0.03174   0.00000  -0.01444  -0.01454   2.63372
    R9        2.02201   0.00867   0.00000   0.00416   0.00416   2.02616
   R10        2.64826   0.00336   0.00000   0.00203   0.00200   2.65026
   R11        2.02201   0.00888   0.00000   0.00426   0.00426   2.02626
   R12        3.32592  -0.00494   0.00000  -0.00262  -0.00262   3.32330
   R13        2.64826   0.01744   0.00000   0.00786   0.00791   2.65617
   R14        2.64826   0.01725   0.00000   0.00788   0.00792   2.65618
   R15        2.64826  -0.01360   0.00000  -0.00601  -0.00600   2.64226
   R16        2.02201   0.00687   0.00000   0.00329   0.00329   2.02530
   R17        2.64826  -0.02746   0.00000  -0.01232  -0.01236   2.63590
   R18        2.02201   0.00911   0.00000   0.00437   0.00437   2.02637
   R19        2.64826  -0.02545   0.00000  -0.01135  -0.01139   2.63687
   R20        3.32592  -0.00209   0.00000  -0.00111  -0.00111   3.32481
   R21        2.64826  -0.00133   0.00000  -0.00048  -0.00049   2.64778
   R22        2.02201   0.00942   0.00000   0.00452   0.00452   2.02653
   R23        2.02201  -0.04216   0.00000  -0.02021  -0.02021   2.00179
    A1        2.09440  -0.07765   0.00000  -0.04188  -0.04170   2.05269
    A2        2.09440  -0.20238   0.00000  -0.11573  -0.11582   1.97857
    A3        2.09440   0.28003   0.00000   0.15762   0.15753   2.25192
    A4        2.09440   0.05534   0.00000   0.03257   0.03269   2.12709
    A5        2.09440  -0.02512   0.00000  -0.01461  -0.01467   2.07972
    A6        2.09440  -0.03022   0.00000  -0.01795  -0.01802   2.07638
    A7        2.09440   0.00685   0.00000   0.00117   0.00112   2.09552
    A8        2.09440  -0.00338   0.00000  -0.00056  -0.00054   2.09386
    A9        2.09440  -0.00346   0.00000  -0.00061  -0.00058   2.09381
   A10        2.09440  -0.01013   0.00000  -0.00895  -0.00913   2.08527
   A11        2.09440   0.00556   0.00000   0.00479   0.00488   2.09928
   A12        2.09440   0.00458   0.00000   0.00415   0.00424   2.09864
   A13        2.09440   0.03937   0.00000   0.02288   0.02275   2.11715
   A14        2.09440  -0.01976   0.00000  -0.01149  -0.01142   2.08297
   A15        2.09440  -0.01961   0.00000  -0.01139  -0.01133   2.08307
   A16        2.09440  -0.01377   0.00000  -0.00579  -0.00574   2.08866
   A17        2.09440   0.18772   0.00000   0.10536   0.10534   2.19973
   A18        2.09440  -0.17395   0.00000  -0.09958  -0.09960   1.99479
   A19        2.09440  -0.13075   0.00000  -0.07437  -0.07442   2.01998
   A20        2.09440   0.19302   0.00000   0.10909   0.10904   2.20344
   A21        2.09440  -0.06227   0.00000  -0.03471  -0.03462   2.05977
   A22        2.09440   0.03926   0.00000   0.02323   0.02328   2.11768
   A23        2.09440  -0.01468   0.00000  -0.00838  -0.00841   2.08599
   A24        2.09440  -0.02457   0.00000  -0.01485  -0.01488   2.07952
   A25        2.09440  -0.00132   0.00000  -0.00175  -0.00179   2.09260
   A26        2.09440   0.00114   0.00000   0.00119   0.00121   2.09560
   A27        2.09440   0.00018   0.00000   0.00056   0.00058   2.09498
   A28        2.09440  -0.00785   0.00000  -0.00562  -0.00571   2.08868
   A29        2.09440   0.00282   0.00000   0.00219   0.00223   2.09663
   A30        2.09440   0.00502   0.00000   0.00343   0.00348   2.09787
   A31        2.09440   0.01060   0.00000   0.00571   0.00566   2.10006
   A32        2.09440  -0.00585   0.00000  -0.00321  -0.00319   2.09121
   A33        2.09440  -0.00476   0.00000  -0.00250  -0.00248   2.09192
   A34        2.09440   0.02158   0.00000   0.01314   0.01318   2.10758
   A35        2.09440   0.01716   0.00000   0.01172   0.01170   2.10609
   A36        2.09440  -0.03875   0.00000  -0.02486  -0.02488   2.06952
    D1        0.00000   0.00000   0.00000   0.00000   0.00000   0.00000
    D2        3.14159   0.00000   0.00000   0.00000   0.00000   3.14159
    D3       -3.14159   0.00000   0.00000   0.00000   0.00000  -3.14159
    D4       -0.00000   0.00000   0.00000   0.00000   0.00000  -0.00000
    D5       -0.00000  -0.00000   0.00000  -0.00000  -0.00000  -0.00000
    D6        3.14159  -0.00000   0.00000  -0.00000  -0.00000   3.14159
    D7        3.14159   0.00000   0.00000   0.00000   0.00000   3.14159
    D8        0.00000  -0.00000   0.00000  -0.00000  -0.00000  -0.00000
    D9       -0.00000  -0.00000   0.00000  -0.00000  -0.00000  -0.00000
   D10        3.14159  -0.00000   0.00000  -0.00000  -0.00000   3.14159
   D11        3.14159  -0.00000   0.00000  -0.00000  -0.00000   3.14159
   D12       -0.00000  -0.00000   0.00000  -0.00000  -0.00000  -0.00000
   D13        0.00000  -0.00000   0.00000  -0.00000  -0.00000   0.00000
   D14        3.14159  -0.00000   0.00000  -0.00000  -0.00000   3.14159
   D15       -3.14159  -0.00000   0.00000  -0.00000  -0.00000  -3.14159
   D16        0.00000   0.00000   0.00000   0.00000  -0.00000   0.00000
   D17       -0.00000  -0.00000   0.00000  -0.00000  -0.00000  -0.00000
   D18        3.14159   0.00000   0.00000   0.00000   0.00000   3.14159
   D19        3.14159  -0.00000   0.00000  -0.00000  -0.00000   3.14159
   D20        0.00000   0.00000   0.00000   0.00000   0.00000   0.00000
   D21        0.00000   0.00000   0.00000   0.00000   0.00000   0.00000
   D22       -3.14159   0.00000   0.00000   0.00000   0.00000  -3.14159
   D23       -3.14159  -0.00000   0.00000  -0.00000  -0.00000  -3.14159
   D24        0.00000   0.00000   0.00000   0.00000   0.00000   0.00000
   D25       -0.00000   0.00000   0.00000   0.00000   0.00000  -0.00000
   D26        3.14159   0.00000   0.00000   0.00000   0.00000   3.14159
   D27        3.14159  -0.00000   0.00000  -0.00000  -0.00000   3.14159
   D28       -0.00000   0.00000   0.00000   0.00000   0.00000  -0.00000
   D29        3.14159   0.00000   0.00000   0.00000   0.00000   3.14159
   D30        0.00000   0.00000   0.00000   0.00000   0.00000   0.00000
   D31        0.00000   0.00000   0.00000   0.00000   0.00000   0.00000
   D32       -3.14159  -0.00000   0.00000  -0.00000  -0.00000  -3.14159
   D33       -3.14159   0.00000   0.00000   0.00000   0.00000  -3.14159
   D34        0.00000   0.00000   0.00000  -0.00000  -0.00000   0.00000
   D35       -0.00000  -0.00000   0.00000  -0.00000  -0.00000  -0.00000
   D36        3.14159  -0.00000   0.00000  -0.00000  -0.00000   3.14159
   D37       -0.00000  -0.00000   0.00000  -0.00000  -0.00000  -0.00000
   D38        3.14159  -0.00000   0.00000  -0.00000  -0.00000   3.14159
   D39        3.14159   0.00000   0.00000   0.00000   0.00000   3.14159
   D40       -0.00000   0.00000   0.00000   0.00000   0.00000  -0.00000
   D41       -0.00000  -0.00000   0.00000  -0.00000  -0.00000  -0.00000
   D42       -3.14159  -0.00000   0.00000  -0.00000  -0.00000  -3.14159
   D43        3.14159  -0.00000   0.00000  -0.00000  -0.00000   3.14159
   D44        0.00000  -0.00000   0.00000  -0.00000  -0.00000   0.00000
   D45        0.00000   0.00000   0.00000   0.00000   0.00000   0.00000
   D46       -3.14159   0.00000   0.00000   0.00000   0.00000  -3.14159
   D47        3.14159   0.00000   0.00000   0.00000   0.00000   3.14159
   D48        0.00000   0.00000   0.00000   0.00000   0.00000   0.00000
   D49        0.00000   0.00000   0.00000   0.00000   0.00000   0.00000
   D50       -3.14159   0.00000   0.00000   0.00000   0.00000  -3.14159
   D51        3.14159   0.00000   0.00000   0.00000   0.00000   3.14159
   D52       -0.00000   0.00000   0.00000   0.00000   0.00000  -0.00000
         Item               Value     Threshold  Converged?
 Maximum Force            0.280028     0.000450     NO 
 RMS     Force            0.050999     0.000300     NO 
 Maximum Displacement     1.171340     0.001800     NO 
 RMS     Displacement     0.228143     0.001200     NO 
 Predicted change in Energy=-1.492378D-01
 GradGradGradGradGradGradGradGradGradGradGradGradGradGradGradGradGradGrad

                          Input orientation:                          
 ---------------------------------------------------------------------
 Center     Atomic      Atomic             Coordinates (Angstroms)
 Number     Number       Type             X           Y           Z
 ---------------------------------------------------------------------
      1          6           0       -1.566263   -0.670482    0.073111
      2          6           0       -0.239462   -0.767638   -0.382257
      3          6           0        0.599808    0.345245   -0.449748
      4          6           0        0.131418    1.595974   -0.060536
      5          6           0       -1.179079    1.726031    0.395637
      6          6           0       -2.037685    0.619664    0.470723
      7          6           0       -2.323542   -2.033322    0.066647
      8          6           0       -1.584223   -3.140237   -0.384815
      9          6           0       -2.148543   -4.418376   -0.438942
     10          6           0       -3.470926   -4.612018   -0.039641
     11          6           0       -4.222233   -3.526290    0.411793
     12          6           0       -3.654515   -2.246426    0.465124
     13          1           0        0.139488   -1.722588   -0.686450
     14          1           0        0.773271    2.453349   -0.110974
     15          1           0       -1.537914    2.691062    0.695097
     16          1           0       -0.567141   -3.005132   -0.694524
     17          1           0       -1.565899   -5.248648   -0.786831
     18          1           0       -5.239113   -3.672527    0.719350
     19          1           0       -4.249978   -1.442083    0.812368
     20         17           0       -3.647879    0.992895    1.071304
     21         17           0       -4.187114   -6.217728   -0.105251
     22         17           0        2.251423    0.166395   -1.027469
 ---------------------------------------------------------------------
                    Distance matrix (angstroms):
                    1          2          3          4          5
     1  C    0.000000
     2  C    1.406130   0.000000
     3  C    2.448867   1.395507   0.000000
     4  C    2.834926   2.414067   1.391114   0.000000
     5  C    2.448919   2.776038   2.405345   1.393704   0.000000
     6  C    1.429969   2.426065   2.806946   2.437299   1.402458
     7  C    1.559117   2.479286   3.803974   4.383468   3.943446
     8  C    2.511913   2.727199   4.113732   5.047799   4.945079
     9  C    3.827266   4.120157   5.499604   6.443122   6.276155
    10  C    4.379060   5.033786   6.427560   7.177499   6.753732
    11  C    3.914655   4.909495   6.243646   6.739062   6.070249
    12  C    2.645386   3.816733   5.064880   5.419746   4.681135
    13  H    2.143233   1.071478   2.131632   3.377083   3.847402
    14  H    3.907125   3.387326   2.142186   1.072199   2.144136
    15  H    3.418720   3.848282   3.373927   2.134682   1.072252
    16  H    2.652942   2.282819   3.556221   4.696818   4.893549
    17  H    4.658230   4.690689   6.007957   7.089234   7.084772
    18  H    4.787455   5.886291   7.183473   7.563592   6.762624
    19  H    2.888632   4.238661   5.320517   5.402627   4.431820
    20  Cl   2.845406   4.102392   4.558058   3.990971   2.662515
    21  Cl   6.137802   6.735293   8.130555   8.927803   8.508964
    22  Cl   4.060341   2.737376   1.758858   2.733693   4.028156
                    6          7          8          9         10
     6  C    0.000000
     7  C    2.698764   0.000000
     8  C    3.882580   1.405585   0.000000
     9  C    5.120707   2.444326   1.398223   0.000000
    10  C    5.448408   2.824440   2.417630   1.394860   0.000000
    11  C    4.686647   2.439899   2.782573   2.412417   1.395370
    12  C    3.290690   1.405591   2.409855   2.793323   2.425802
    13  H    3.400777   2.594268   2.252086   3.544520   4.669289
    14  H    3.406207   5.454541   6.076263   7.474301   8.242433
    15  H    2.142616   4.830317   5.930632   7.225166   7.590214
    16  H    4.081599   2.146798   1.071742   2.136216   3.382740
    17  H    6.020059   3.411857   2.146474   1.072311   2.143063
    18  H    5.360397   3.407869   3.854962   3.383719   2.141307
    19  H    3.043314   2.148679   3.379826   3.852289   3.373622
    20  Cl   1.758613   3.452708   4.843731   5.814697   5.716691
    21  Cl   7.190392   4.583853   4.040316   2.739487   1.759413
    22  Cl   4.565795   5.192894   5.104802   6.381708   7.520260
                   11         12         13         14         15
    11  C    0.000000
    12  C    1.401142   0.000000
    13  H    4.846038   3.999373   0.000000
    14  H    7.809252   6.482674   4.262781   0.000000
    15  H    6.778001   5.376958   4.919620   2.459235   0.000000
    16  H    3.854250   3.384124   1.464345   5.650862   5.943069
    17  H    3.385162   3.865623   3.918101   8.077701   8.076873
    18  H    1.072391   2.146939   5.891340   8.623488   7.361707
    19  H    2.122534   1.059303   4.646779   6.423393   4.944889
    20  Cl   4.603028   3.295557   4.980732   4.803881   2.734457
    21  Cl   2.740877   4.047250   6.266064   9.989646   9.328739
    22  Cl   7.590495   6.552071   2.853913   2.873161   4.868291
                   16         17         18         19         20
    16  H    0.000000
    17  H    2.457520   0.000000
    18  H    4.926640   4.271445   0.000000
    19  H    4.275177   4.924597   2.441704   0.000000
    20  Cl   5.347271   6.836970   4.941868   2.521644   0.000000
    21  Cl   4.875677   2.876532   2.874843   4.863411   7.325854
    22  Cl   4.256023   6.629671   8.596327   6.945532   6.315831
                   21         22
    21  Cl   0.000000
    22  Cl   9.113851   0.000000
 Stoichiometry    C12H7Cl3
 Framework group  C1[X(C12H7Cl3)]
 Deg. of freedom    60
 Full point group                 C1      NOp   1
 Largest Abelian subgroup         C1      NOp   1
 Largest concise Abelian subgroup C1      NOp   1
                         Standard orientation:                         
 ---------------------------------------------------------------------
 Center     Atomic      Atomic             Coordinates (Angstroms)
 Number     Number       Type             X           Y           Z
 ---------------------------------------------------------------------
      1          6           0       -0.849008    0.297387    0.000001
      2          6           0       -1.543846   -0.925070    0.000001
      3          6           0       -2.938268   -0.980088   -0.000001
      4          6           0       -3.682101    0.195459   -0.000003
      5          6           0       -3.023525    1.423746   -0.000001
      6          6           0       -1.623125    1.499699    0.000001
      7          6           0        0.700843    0.127655    0.000002
      8          6           0        1.169719   -1.197420    0.000005
      9          6           0        2.538156   -1.484489    0.000004
     10          6           0        3.466877   -0.443761    0.000001
     11          6           0        3.022220    0.878864   -0.000002
     12          6           0        1.650399    1.164009   -0.000002
     13          1           0       -0.988357   -1.841312    0.000001
     14          1           0       -4.753618    0.157217   -0.000004
     15          1           0       -3.598943    2.328521   -0.000000
     16          1           0        0.466660   -2.006332    0.000005
     17          1           0        2.873462   -2.503028    0.000007
     18          1           0        3.734213    1.680792   -0.000008
     19          1           0        1.343653    2.177927   -0.000006
     20         17           0       -0.987488    3.139421    0.000002
     21         17           0        5.190249   -0.798054   -0.000002
     22         17           0       -3.756121   -2.537232   -0.000001
 ---------------------------------------------------------------------
 Rotational constants (GHZ):           0.6603987           0.2139861           0.1616178
 Standard basis: 6-311+G(d,p) (5D, 7F)
 There are   411 symmetry adapted cartesian basis functions of A   symmetry.
 There are   396 symmetry adapted basis functions of A   symmetry.
   396 basis functions,   647 primitive gaussians,   411 cartesian basis functions
    65 alpha electrons       65 beta electrons
       nuclear repulsion energy      1155.4001202022 Hartrees.
 NAtoms=   22 NActive=   22 NUniq=   22 SFac= 1.00D+00 NAtFMM=   60 NAOKFM=F Big=F
 Integral buffers will be    131072 words long.
 Raffenetti 2 integral format.
 Two-electron integral symmetry is turned on.
 One-electron integrals computed using PRISM.
 NBasis=   396 RedAO= T EigKep=  1.25D-06  NBF=   396
 NBsUse=   391 1.00D-06 EigRej=  9.89D-07 NBFU=   391
 Initial guess from the checkpoint file:  "/scratch/pkc/Gau-20544.chk"
 B after Tr=    -0.000000    0.000000    0.000000
         Rot=    0.999125    0.000000    0.000000   -0.041823 Ang=   4.79 deg.
 ExpMin= 4.38D-02 ExpMax= 1.06D+05 ExpMxC= 3.62D+03 IAcc=3 IRadAn=         5 AccDes= 0.00D+00
 Harris functional with IExCor=  402 and IRadAn=       5 diagonalized for initial guess.
 HarFok:  IExCor=  402 AccDes= 0.00D+00 IRadAn=         5 IDoV= 1 UseB2=F ITyADJ=14
 ICtDFT=  3500011 ScaDFX=  1.000000  1.000000  1.000000  1.000000
 FoFCou: FMM=F IPFlag=           0 FMFlag=      100000 FMFlg1=           0
         NFxFlg=           0 DoJE=T BraDBF=F KetDBF=T FulRan=T
         wScrn=  0.000000 ICntrl=       500 IOpCl=  0 I1Cent=   200000004 NGrid=           0
         NMat0=    1 NMatS0=      1 NMatT0=    0 NMatD0=    1 NMtDS0=    0 NMtDT0=    0
 Petite list used in FoFCou.
 Requested convergence on RMS density matrix=1.00D-08 within  32 cycles.
 Requested convergence on MAX density matrix=1.00D-06.
 Requested convergence on             energy=1.00D-06.
 No special actions if energy rises.
 SCF Done:  E(RB3LYP) =  -1842.26448447     A.U. after   16 cycles
            NFock= 16  Conv=0.82D-08     -V/T= 2.0030
 QCSCF skips out because SCF is already converged.
 Calling FoFJK, ICntrl=      2127 FMM=F ISym2X=0 I1Cent= 0 IOpClX= 0 NMat=1 NMatS=1 NMatT=0.
 ***** Axes restored to original set *****
 -------------------------------------------------------------------
 Center     Atomic                   Forces (Hartrees/Bohr)
 Number     Number              X              Y              Z
 -------------------------------------------------------------------
      1        6          -0.019488388   -0.017742327    0.003088282
      2        6           0.006162406    0.024879595    0.002642506
      3        6          -0.009271182   -0.004213076    0.002263297
      4        6          -0.004064952   -0.004071547    0.000574325
      5        6           0.003960510   -0.013304173   -0.003803399
      6        6           0.015973424   -0.006837058   -0.006546536
      7        6           0.013619840    0.023112335   -0.000146312
      8        6          -0.020574544   -0.013654742    0.004213989
      9        6          -0.001470746    0.008580138    0.002095910
     10        6           0.001433116    0.008137270    0.001056161
     11        6           0.008910725    0.001568513   -0.002640972
     12        6           0.011311707   -0.014647297   -0.006477702
     13        1           0.007469413    0.008218310   -0.000917394
     14        1           0.003936895    0.006103054   -0.000150811
     15        1          -0.002976704    0.006000757    0.002107734
     16        1          -0.002083296   -0.013045461   -0.001763857
     17        1           0.004017696   -0.005788158   -0.002410690
     18        1          -0.006936862   -0.000673138    0.002158902
     19        1          -0.008117647    0.010382130    0.004624264
     20       17          -0.000672949   -0.005557836   -0.000822131
     21       17           0.001212270    0.002664650    0.000100999
     22       17          -0.002350733   -0.000111941    0.000753436
 -------------------------------------------------------------------
 Cartesian Forces:  Max     0.024879595 RMS     0.008516181

 GradGradGradGradGradGradGradGradGradGradGradGradGradGradGradGradGradGrad
 Berny optimization.
 Using GEDIIS/GDIIS optimizer.
 FormGI is forming the generalized inverse of G from B-inverse, IUseBI=4.
 Internal  Forces:  Max     0.061228514 RMS     0.011301268
 Search for a local minimum.
 Step number   2 out of a maximum of  121
 All quantities printed in internal units (Hartrees-Bohrs-Radians)
 Mixed Optimization -- RFO/linear search
 Update second derivatives using D2CorX and points    1    2
 DE= -4.01D-02 DEPred=-1.49D-01 R= 2.68D-01
 Trust test= 2.68D-01 RLast= 3.00D-01 DXMaxT set to 3.00D-01
 ITU=  0  0
 Use linear search instead of GDIIS.
     Eigenvalues ---    0.00237   0.01478   0.01484   0.02070   0.02070
     Eigenvalues ---    0.02070   0.02070   0.02070   0.02070   0.02070
     Eigenvalues ---    0.02070   0.02070   0.02070   0.02070   0.02070
     Eigenvalues ---    0.02070   0.02070   0.02070   0.02070   0.15968
     Eigenvalues ---    0.16000   0.16000   0.16000   0.16000   0.16000
     Eigenvalues ---    0.16036   0.22003   0.22389   0.22939   0.23494
     Eigenvalues ---    0.23951   0.24478   0.24895   0.25000   0.25000
     Eigenvalues ---    0.25000   0.28453   0.29537   0.29539   0.29539
     Eigenvalues ---    0.37073   0.37191   0.37230   0.37230   0.37230
     Eigenvalues ---    0.37230   0.37230   0.40449   0.41178   0.41340
     Eigenvalues ---    0.41690   0.45051   0.45332   0.45389   0.45389
     Eigenvalues ---    0.45389   0.45389   0.45389   0.45389   2.10462
 RFO step:  Lambda=-1.39196751D-02 EMin= 2.36824243D-03
 Quartic linear search produced a step of -0.31684.
 Iteration  1 RMS(Cart)=  0.15014712 RMS(Int)=  0.00466510
 Iteration  2 RMS(Cart)=  0.00847728 RMS(Int)=  0.00005796
 Iteration  3 RMS(Cart)=  0.00002996 RMS(Int)=  0.00005727
 Iteration  4 RMS(Cart)=  0.00000000 RMS(Int)=  0.00005727
 Variable       Old X    -DE/DX   Delta X   Delta X   Delta X     New X
                                 (Linear)    (Quad)   (Total)
    R1        2.65720   0.00817  -0.00283   0.01960   0.01684   2.67404
    R2        2.70225  -0.01735  -0.01711   0.02014   0.00314   2.70539
    R3        2.94630  -0.00645  -0.01145   0.01400   0.00256   2.94886
    R4        2.63713  -0.00712   0.00353  -0.01925  -0.01575   2.62138
    R5        2.02480  -0.00442  -0.00089  -0.00549  -0.00638   2.01842
    R6        2.62882  -0.00638   0.00616  -0.02534  -0.01929   2.60953
    R7        3.32376  -0.00244   0.00068  -0.00712  -0.00643   3.31733
    R8        2.63372  -0.01029   0.00461  -0.02749  -0.02296   2.61076
    R9        2.02616   0.00724  -0.00132   0.01625   0.01493   2.04110
   R10        2.65026  -0.00717  -0.00063  -0.00940  -0.01000   2.64026
   R11        2.02626   0.00699  -0.00135   0.01588   0.01453   2.04079
   R12        3.32330  -0.00084   0.00083  -0.00396  -0.00313   3.32017
   R13        2.65617   0.01031  -0.00251   0.02249   0.02004   2.67621
   R14        2.65618  -0.00179  -0.00251   0.00441   0.00199   2.65817
   R15        2.64226  -0.00773   0.00190  -0.01595  -0.01408   2.62817
   R16        2.02530  -0.00311  -0.00104  -0.00277  -0.00381   2.02149
   R17        2.63590  -0.00706   0.00392  -0.02111  -0.01729   2.61862
   R18        2.02637   0.00745  -0.00138   0.01678   0.01540   2.04178
   R19        2.63687  -0.01020   0.00361  -0.02531  -0.02176   2.61511
   R20        3.32481  -0.00293   0.00035  -0.00735  -0.00700   3.31781
   R21        2.64778  -0.00841   0.00015  -0.01311  -0.01293   2.63485
   R22        2.02653   0.00729  -0.00143   0.01663   0.01520   2.04172
   R23        2.00179   0.01396   0.00640   0.00789   0.01429   2.01609
    A1        2.05269  -0.01650   0.01321  -0.07507  -0.06166   1.99103
    A2        1.97857   0.06123   0.03670   0.06877   0.10537   2.08394
    A3        2.25192  -0.04473  -0.04991   0.00630  -0.04371   2.20821
    A4        2.12709   0.00322  -0.01036   0.03596   0.02565   2.15273
    A5        2.07972   0.00874   0.00465   0.02379   0.02842   2.10814
    A6        2.07638  -0.01197   0.00571  -0.05975  -0.05407   2.02231
    A7        2.09552   0.00576  -0.00036   0.01818   0.01768   2.11320
    A8        2.09386  -0.00349   0.00017  -0.01066  -0.01041   2.08344
    A9        2.09381  -0.00227   0.00018  -0.00752  -0.00727   2.08654
   A10        2.08527  -0.00777   0.00289  -0.02840  -0.02569   2.05957
   A11        2.09928   0.00443  -0.00155   0.01656   0.01511   2.11439
   A12        2.09864   0.00334  -0.00134   0.01183   0.01058   2.10922
   A13        2.11715  -0.00025  -0.00721   0.01521   0.00795   2.12510
   A14        2.08297   0.00085   0.00362  -0.00479  -0.00114   2.08183
   A15        2.08307  -0.00060   0.00359  -0.01042  -0.00681   2.07626
   A16        2.08866   0.01554   0.00182   0.03411   0.03607   2.12473
   A17        2.19973  -0.01706  -0.03338   0.03820   0.00475   2.20449
   A18        1.99479   0.00153   0.03156  -0.07231  -0.04083   1.95397
   A19        2.01998   0.05666   0.02358   0.08821   0.11171   2.13168
   A20        2.20344  -0.04277  -0.03455  -0.02695  -0.06158   2.14185
   A21        2.05977  -0.01389   0.01097  -0.06126  -0.05013   2.00965
   A22        2.11768   0.00394  -0.00738   0.03078   0.02343   2.14111
   A23        2.08599   0.01115   0.00266   0.03831   0.04096   2.12695
   A24        2.07952  -0.01509   0.00471  -0.06909  -0.06439   2.01513
   A25        2.09260   0.00033   0.00057  -0.00071  -0.00028   2.09233
   A26        2.09560  -0.00013  -0.00038   0.00072   0.00040   2.09600
   A27        2.09498  -0.00020  -0.00018  -0.00000  -0.00012   2.09485
   A28        2.08868   0.00163   0.00181  -0.00259  -0.00093   2.08775
   A29        2.09663  -0.00085  -0.00071   0.00071   0.00008   2.09671
   A30        2.09787  -0.00078  -0.00110   0.00187   0.00085   2.09872
   A31        2.10006  -0.00155  -0.00179  -0.00320  -0.00503   2.09503
   A32        2.09121   0.00111   0.00101   0.00267   0.00369   2.09490
   A33        2.09192   0.00044   0.00078   0.00053   0.00133   2.09325
   A34        2.10758   0.00955  -0.00418   0.03698   0.03293   2.14050
   A35        2.10609  -0.00442  -0.00371  -0.00465  -0.00841   2.09768
   A36        2.06952  -0.00513   0.00788  -0.03233  -0.02451   2.04500
    D1        0.00000  -0.00000  -0.00000  -0.00000  -0.00000   0.00000
    D2        3.14159  -0.00000  -0.00000  -0.00000  -0.00000   3.14159
    D3       -3.14159  -0.00000  -0.00000  -0.00000  -0.00000  -3.14159
    D4       -0.00000  -0.00000  -0.00000   0.00000   0.00000  -0.00000
    D5       -0.00000   0.00000   0.00000   0.00000   0.00000  -0.00000
    D6        3.14159   0.00000   0.00000   0.00000   0.00000   3.14159
    D7        3.14159  -0.00000  -0.00000   0.00000   0.00000   3.14159
    D8       -0.00000  -0.00000   0.00000  -0.00000  -0.00000  -0.00000
    D9       -0.00000  -0.00000   0.00000  -0.00000  -0.00000  -0.00000
   D10        3.14159  -0.00000   0.00000  -0.00000  -0.00000   3.14159
   D11        3.14159  -0.00000   0.00000  -0.00000  -0.00000   3.14159
   D12       -0.00000  -0.00000   0.00000   0.00000   0.00000  -0.00000
   D13        0.00000  -0.00000   0.00000  -0.00000  -0.00000   0.00000
   D14        3.14159   0.00000   0.00000   0.00000   0.00000   3.14159
   D15       -3.14159  -0.00000   0.00000  -0.00000  -0.00000  -3.14159
   D16        0.00000  -0.00000   0.00000  -0.00000  -0.00000   0.00000
   D17       -0.00000   0.00000   0.00000   0.00000   0.00000  -0.00000
   D18        3.14159   0.00000  -0.00000   0.00000   0.00000   3.14159
   D19        3.14159   0.00000   0.00000   0.00000   0.00000   3.14159
   D20        0.00000  -0.00000  -0.00000  -0.00000  -0.00000   0.00000
   D21        0.00000  -0.00000  -0.00000  -0.00000  -0.00000   0.00000
   D22       -3.14159  -0.00000  -0.00000  -0.00000  -0.00000  -3.14159
   D23       -3.14159  -0.00000   0.00000  -0.00000  -0.00000  -3.14159
   D24        0.00000  -0.00000  -0.00000  -0.00000  -0.00000   0.00000
   D25       -0.00000   0.00000  -0.00000   0.00000   0.00000  -0.00000
   D26        3.14159   0.00000  -0.00000   0.00000   0.00000   3.14159
   D27        3.14159   0.00000   0.00000   0.00000   0.00000   3.14159
   D28       -0.00000   0.00000  -0.00000   0.00000   0.00000  -0.00000
   D29        3.14159  -0.00000  -0.00000   0.00000   0.00000  -3.14159
   D30        0.00000  -0.00000  -0.00000  -0.00000  -0.00000   0.00000
   D31        0.00000  -0.00000  -0.00000  -0.00000  -0.00000   0.00000
   D32       -3.14159  -0.00000   0.00000  -0.00000  -0.00000  -3.14159
   D33       -3.14159  -0.00000  -0.00000  -0.00000  -0.00000  -3.14159
   D34        0.00000  -0.00000   0.00000  -0.00000  -0.00000  -0.00000
   D35       -0.00000   0.00000   0.00000   0.00000   0.00000  -0.00000
   D36        3.14159   0.00000   0.00000   0.00000   0.00000   3.14159
   D37       -0.00000  -0.00000   0.00000   0.00000   0.00000  -0.00000
   D38        3.14159  -0.00000   0.00000  -0.00000  -0.00000   3.14159
   D39        3.14159   0.00000  -0.00000   0.00000   0.00000   3.14159
   D40       -0.00000   0.00000  -0.00000   0.00000   0.00000  -0.00000
   D41       -0.00000   0.00000   0.00000   0.00000   0.00000   0.00000
   D42       -3.14159  -0.00000   0.00000  -0.00000  -0.00000  -3.14159
   D43        3.14159   0.00000   0.00000   0.00000   0.00000  -3.14159
   D44        0.00000  -0.00000   0.00000  -0.00000  -0.00000   0.00000
   D45        0.00000   0.00000  -0.00000  -0.00000  -0.00000   0.00000
   D46       -3.14159  -0.00000  -0.00000  -0.00000  -0.00000  -3.14159
   D47        3.14159   0.00000  -0.00000   0.00000   0.00000   3.14159
   D48        0.00000  -0.00000  -0.00000  -0.00000  -0.00000   0.00000
   D49        0.00000  -0.00000  -0.00000  -0.00000  -0.00000  -0.00000
   D50       -3.14159  -0.00000  -0.00000  -0.00000  -0.00000  -3.14159
   D51        3.14159   0.00000  -0.00000   0.00000   0.00000   3.14159
   D52       -0.00000   0.00000  -0.00000   0.00000   0.00000  -0.00000
         Item               Value     Threshold  Converged?
 Maximum Force            0.061229     0.000450     NO 
 RMS     Force            0.011301     0.000300     NO 
 Maximum Displacement     0.601491     0.001800     NO 
 RMS     Displacement     0.152836     0.001200     NO 
 Predicted change in Energy=-9.135492D-03
 GradGradGradGradGradGradGradGradGradGradGradGradGradGradGradGradGradGrad

                          Input orientation:                          
 ---------------------------------------------------------------------
 Center     Atomic      Atomic             Coordinates (Angstroms)
 Number     Number       Type             X           Y           Z
 ---------------------------------------------------------------------
      1          6           0       -1.462255   -0.737202    0.026315
      2          6           0       -0.116244   -0.681808   -0.406730
      3          6           0        0.628869    0.487973   -0.432516
      4          6           0        0.083066    1.689861   -0.026974
      5          6           0       -1.228914    1.693326    0.405913
      6          6           0       -1.995432    0.525672    0.439150
      7          6           0       -2.214245   -2.104498    0.017272
      8          6           0       -1.593574   -3.302772   -0.412260
      9          6           0       -2.253005   -4.527202   -0.424966
     10          6           0       -3.571331   -4.605718   -0.005379
     11          6           0       -4.221789   -3.462103    0.423702
     12          6           0       -3.551419   -2.239562    0.432449
     13          1           0        0.388076   -1.563008   -0.738376
     14          1           0        0.662229    2.601346   -0.046597
     15          1           0       -1.676450    2.621979    0.727763
     16          1           0       -0.578916   -3.323427   -0.750426
     17          1           0       -1.738818   -5.415963   -0.761288
     18          1           0       -5.249653   -3.515728    0.752271
     19          1           0       -4.096384   -1.387553    0.772008
     20         17           0       -3.622371    0.824571    1.031287
     21         17           0       -4.410136   -6.148036   -0.018689
     22         17           0        2.292596    0.436971   -0.990216
[...]
     18          1           0        3.447144    0.772719   -1.762834
     19          1           0        1.015417    1.200535   -1.734964
     20         17           0       -0.500315    2.910644    0.271170
     21         17           0        5.118810   -0.800270   -0.052674
     22         17           0       -4.063720   -2.236589   -0.194409
 ---------------------------------------------------------------------
 Rotational constants (GHZ):           0.7435975           0.2087128           0.1697217

 **********************************************************************

            Population analysis using the SCF Density.

 **********************************************************************

 Orbital symmetries:
       Occupied  (A) (A) (A) (A) (A) (A) (A) (A) (A) (A) (A) (A)
                 (A) (A) (A) (A) (A) (A) (A) (A) (A) (A) (A) (A)
                 (A) (A) (A) (A) (A) (A) (A) (A) (A) (A) (A) (A)
                 (A) (A) (A) (A) (A) (A) (A) (A) (A) (A) (A) (A)
                 (A) (A) (A) (A) (A) (A) (A) (A) (A) (A) (A) (A)
                 (A) (A) (A) (A) (A)
       Virtual   (A) (A) (A) (A) (A) (A) (A) (A) (A) (A) (A) (A)
                 (A) (A) (A) (A) (A) (A) (A) (A) (A) (A) (A) (A)
                 (A) (A) (A) (A) (A) (A) (A) (A) (A) (A) (A) (A)
                 (A) (A) (A) (A) (A) (A) (A) (A) (A) (A) (A) (A)
                 (A) (A) (A) (A) (A) (A) (A) (A) (A) (A) (A) (A)
                 (A) (A) (A) (A) (A) (A) (A) (A) (A) (A) (A) (A)
                 (A) (A) (A) (A) (A) (A) (A) (A) (A) (A) (A) (A)
                 (A) (A) (A) (A) (A) (A) (A) (A) (A) (A) (A) (A)
                 (A) (A) (A) (A) (A) (A) (A) (A) (A) (A) (A) (A)
                 (A) (A) (A) (A) (A) (A) (A) (A) (A) (A) (A) (A)
                 (A) (A) (A) (A) (A) (A) (A) (A) (A) (A) (A) (A)
                 (A) (A) (A) (A) (A) (A) (A) (A) (A) (A) (A) (A)
                 (A) (A) (A) (A) (A) (A) (A) (A) (A) (A) (A) (A)
                 (A) (A) (A) (A) (A) (A) (A) (A) (A) (A) (A) (A)
                 (A) (A) (A) (A) (A) (A) (A) (A) (A) (A) (A) (A)
                 (A) (A) (A) (A) (A) (A) (A) (A) (A) (A) (A) (A)
                 (A) (A) (A) (A) (A) (A) (A) (A) (A) (A) (A) (A)
                 (A) (A) (A) (A) (A) (A) (A) (A) (A) (A) (A) (A)
                 (A) (A) (A) (A) (A) (A) (A) (A) (A) (A) (A) (A)
                 (A) (A) (A) (A) (A) (A) (A) (A) (A) (A) (A) (A)
                 (A) (A) (A) (A) (A) (A) (A) (A) (A) (A) (A) (A)
                 (A) (A) (A) (A) (A) (A) (A) (A) (A) (A) (A) (A)
                 (A) (A) (A) (A) (A) (A) (A) (A) (A) (A) (A) (A)
                 (A) (A) (A) (A) (A) (A) (A) (A) (A) (A) (A) (A)
                 (A) (A) (A) (A) (A) (A) (A) (A) (A) (A) (A) (A)
                 (A) (A) (A) (A) (A) (A) (A) (A) (A) (A) (A) (A)
                 (A) (A) (A) (A) (A) (A) (A) (A) (A) (A) (A) (A)
                 (A) (A) (A) (A) (A) (A)
 The electronic state is 1-A.
 Alpha  occ. eigenvalues -- -101.56678-101.56571-101.56123 -10.25827 -10.25685
 Alpha  occ. eigenvalues --  -10.25085 -10.22362 -10.21054 -10.20991 -10.20902
 Alpha  occ. eigenvalues --  -10.20889 -10.20117 -10.20046 -10.20043 -10.19987
 Alpha  occ. eigenvalues --   -9.48133  -9.48045  -9.47580  -7.24597  -7.24509
 Alpha  occ. eigenvalues --   -7.24038  -7.23614  -7.23580  -7.23531  -7.23481
 Alpha  occ. eigenvalues --   -7.23065  -7.23029  -0.92607  -0.90625  -0.89026
 Alpha  occ. eigenvalues --   -0.85847  -0.83693  -0.79950  -0.77631  -0.75075
 Alpha  occ. eigenvalues --   -0.73229  -0.65600  -0.64189  -0.62556  -0.59977
 Alpha  occ. eigenvalues --   -0.54646  -0.52111  -0.51443  -0.49008  -0.48887
 Alpha  occ. eigenvalues --   -0.47300  -0.45405  -0.45098  -0.45030  -0.42622
 Alpha  occ. eigenvalues --   -0.41221  -0.41059  -0.39584  -0.38189  -0.38013
 Alpha  occ. eigenvalues --   -0.37744  -0.34927  -0.33108  -0.32928  -0.32759
 Alpha  occ. eigenvalues --   -0.32425  -0.29297  -0.28075  -0.26419  -0.25175
 Alpha virt. eigenvalues --   -0.05854  -0.04711  -0.03601  -0.02355  -0.00763
 Alpha virt. eigenvalues --   -0.00666   0.00528   0.00850   0.01050   0.01838
 Alpha virt. eigenvalues --    0.02448   0.03158   0.04010   0.04415   0.04655
 Alpha virt. eigenvalues --    0.05243   0.05520   0.06299   0.06655   0.07065
 Alpha virt. eigenvalues --    0.08012   0.08434   0.08700   0.09206   0.09727
 Alpha virt. eigenvalues --    0.10206   0.10510   0.10843   0.11398   0.11928
 Alpha virt. eigenvalues --    0.12098   0.12391   0.12852   0.13034   0.13481
 Alpha virt. eigenvalues --    0.13703   0.13983   0.14935   0.15279   0.15434
 Alpha virt. eigenvalues --    0.16232   0.16419   0.17026   0.17420   0.17577
 Alpha virt. eigenvalues --    0.17823   0.18667   0.19137   0.19445   0.19671
 Alpha virt. eigenvalues --    0.19841   0.20187   0.20478   0.20924   0.21240
 Alpha virt. eigenvalues --    0.21628   0.21941   0.22265   0.22598   0.23440
 Alpha virt. eigenvalues --    0.23754   0.24333   0.24501   0.25040   0.25574
 Alpha virt. eigenvalues --    0.26063   0.26193   0.26727   0.27365   0.27562
 Alpha virt. eigenvalues --    0.27759   0.28192   0.28806   0.29316   0.29779
 Alpha virt. eigenvalues --    0.30538   0.31242   0.31465   0.31977   0.32623
 Alpha virt. eigenvalues --    0.33621   0.34073   0.35549   0.35910   0.42585
 Alpha virt. eigenvalues --    0.42907   0.43306   0.44545   0.44997   0.45814
 Alpha virt. eigenvalues --    0.46025   0.47304   0.47902   0.48628   0.49580
 Alpha virt. eigenvalues --    0.50663   0.51221   0.51776   0.52402   0.54264
 Alpha virt. eigenvalues --    0.54966   0.55683   0.56777   0.57013   0.57508
 Alpha virt. eigenvalues --    0.57949   0.58455   0.59610   0.60031   0.61123
 Alpha virt. eigenvalues --    0.61494   0.62277   0.63463   0.63593   0.66012
 Alpha virt. eigenvalues --    0.66401   0.66458   0.66556   0.68630   0.69028
 Alpha virt. eigenvalues --    0.69071   0.69571   0.70391   0.70521   0.71450
 Alpha virt. eigenvalues --    0.71959   0.73432   0.73828   0.75440   0.78244
 Alpha virt. eigenvalues --    0.81581   0.82183   0.82701   0.83226   0.83664
 Alpha virt. eigenvalues --    0.84186   0.85017   0.85158   0.85293   0.85530
 Alpha virt. eigenvalues --    0.86047   0.86168   0.86861   0.87003   0.88445
 Alpha virt. eigenvalues --    0.89108   0.89477   0.89952   0.91117   0.91652
 Alpha virt. eigenvalues --    0.93348   0.94320   0.94669   0.94958   0.95516
 Alpha virt. eigenvalues --    0.96815   0.98169   0.98684   1.00384   1.01169
 Alpha virt. eigenvalues --    1.02056   1.02916   1.04536   1.05966   1.06715
 Alpha virt. eigenvalues --    1.09856   1.11389   1.12506   1.13191   1.16459
 Alpha virt. eigenvalues --    1.18696   1.19996   1.22394   1.25064   1.26175
 Alpha virt. eigenvalues --    1.26355   1.28823   1.29517   1.30544   1.32788
 Alpha virt. eigenvalues --    1.35949   1.40608   1.43863   1.47400   1.49181
 Alpha virt. eigenvalues --    1.49897   1.50914   1.52159   1.53751   1.54837
 Alpha virt. eigenvalues --    1.56089   1.58096   1.59323   1.60253   1.60885
 Alpha virt. eigenvalues --    1.63402   1.64968   1.66703   1.68141   1.69138
 Alpha virt. eigenvalues --    1.70514   1.72304   1.72673   1.76060   1.77257
 Alpha virt. eigenvalues --    1.78206   1.83616   1.85729   1.87106   1.89771
 Alpha virt. eigenvalues --    1.90476   1.90895   1.91499   1.92792   1.93785
 Alpha virt. eigenvalues --    1.94733   1.94955   1.96172   1.96357   1.98218
 Alpha virt. eigenvalues --    1.99842   2.03119   2.04597   2.05896   2.06893
 Alpha virt. eigenvalues --    2.07570   2.09954   2.14656   2.17460   2.18854
 Alpha virt. eigenvalues --    2.25902   2.27010   2.27746   2.28413   2.29240
 Alpha virt. eigenvalues --    2.30332   2.32639   2.34722   2.37804   2.38855
 Alpha virt. eigenvalues --    2.40896   2.41189   2.44023   2.45618   2.48207
 Alpha virt. eigenvalues --    2.53255   2.54061   2.54757   2.59111   2.60422
 Alpha virt. eigenvalues --    2.62254   2.65204   2.66161   2.67721   2.68034
 Alpha virt. eigenvalues --    2.69462   2.71097   2.72897   2.73218   2.74111
 Alpha virt. eigenvalues --    2.75247   2.76156   2.76543   2.77601   2.79470
 Alpha virt. eigenvalues --    2.79826   2.81203   2.82723   2.84143   2.85323
 Alpha virt. eigenvalues --    2.88798   2.92057   2.92461   2.98905   3.00076
 Alpha virt. eigenvalues --    3.06942   3.08244   3.08704   3.13324   3.14987
 Alpha virt. eigenvalues --    3.17234   3.22501   3.26084   3.33533   3.34187
 Alpha virt. eigenvalues --    3.39897   3.43035   3.48206   3.53170   3.57892
 Alpha virt. eigenvalues --    3.59631   3.69203   3.75963   3.82049   3.87544
 Alpha virt. eigenvalues --    3.96939   4.04182   4.11965   4.12925   4.14038
 Alpha virt. eigenvalues --    4.39257   4.80967   4.83535   9.76927   9.77646
 Alpha virt. eigenvalues --    9.80382  23.44588  23.61558  23.85026  23.90127
 Alpha virt. eigenvalues --   23.93938  23.94370  23.98589  24.03430  24.07013
 Alpha virt. eigenvalues --   24.08111  24.13444  24.16450  25.82385  25.82958
 Alpha virt. eigenvalues --   25.88785  26.10910  26.12151  26.26168  26.58753
 Alpha virt. eigenvalues --   26.60001  26.70569 215.76112 215.76726 215.80117
          Condensed to atoms (all electrons):
               1          2          3          4          5          6
     1  C   34.886722   4.840888  -3.617502  -2.478108  -5.748081 -13.192738
     2  C    4.840888  48.544636  -5.679721  -8.105462 -10.465041  -6.788514
     3  C   -3.617502  -5.679721  18.122882  -1.116560   0.785848  -4.723559
     4  C   -2.478108  -8.105462  -1.116560  16.015514   1.033689   0.794639
     5  C   -5.748081 -10.465041   0.785848   1.033689  24.293690  -8.168283
     6  C  -13.192738  -6.788514  -4.723559   0.794639  -8.168283  35.329140
     7  C   -5.567152 -15.415945   2.407912  -0.054664   5.746151  -0.333487
     8  C   -0.396398   1.673382  -0.195288  -0.425480   0.256210  -1.090093
     9  C    0.249373   0.317447  -0.191792  -0.099604   0.186083   0.219367
    10  C   -1.891991  -0.991155   0.223474  -0.014049   0.174164   0.763593
    11  C    2.691130   1.340112  -0.074789   0.024838  -0.425635  -1.314299
    12  C   -5.005483  -4.053810   0.493356   0.473055   0.421306   4.277090
    13  H    0.074698   0.027853   0.032416   0.040120   0.027993   0.015998
    14  H    0.034004  -0.006913   0.098596   0.275065   0.018494  -0.074512
    15  H    0.097555  -0.031821  -0.015118  -0.064676   0.348836   0.008344
    16  H    0.051116   0.118312  -0.030779  -0.000599  -0.002974  -0.017549
    17  H    0.008440   0.003211  -0.001197   0.000192  -0.000544  -0.002046
    18  H    0.016544   0.002466  -0.000782   0.000096   0.000433  -0.001779
    19  H   -0.018856  -0.013913  -0.018510   0.005335   0.003963   0.078999
    20  Cl   0.825442   0.953460  -0.144185   0.225604  -1.473358  -0.020471
    21  Cl  -0.083648  -0.024859   0.010588  -0.001427   0.002167   0.009852
    22  Cl  -0.357700   0.812206  -1.290476  -0.007998   0.103157   0.112008
               7          8          9         10         11         12
     1  C   -5.567152  -0.396398   0.249373  -1.891991   2.691130  -5.005483
     2  C  -15.415945   1.673382   0.317447  -0.991155   1.340112  -4.053810
     3  C    2.407912  -0.195288  -0.191792   0.223474  -0.074789   0.493356
     4  C   -0.054664  -0.425480  -0.099604  -0.014049   0.024838   0.473055
     5  C    5.746151   0.256210   0.186083   0.174164  -0.425635   0.421306
     6  C   -0.333487  -1.090093   0.219367   0.763593  -1.314299   4.277090
     7  C   34.168119  -3.174034  -0.584066  -6.622338   0.379732  -4.457742
     8  C   -3.174034  27.851213  -2.833391   0.473478  -1.601039 -14.440375
     9  C   -0.584066  -2.833391  20.009173  -1.844897  -8.291989  -0.612990
    10  C   -6.622338   0.473478  -1.844897  17.958647  -4.313051   2.383968
    11  C    0.379732  -1.601039  -8.291989  -4.313051  22.876528  -5.167379
    12  C   -4.457742 -14.440375  -0.612990   2.383968  -5.167379  32.102690
    13  H    0.075769   0.112691  -0.006258   0.006825  -0.007944  -0.047748
    14  H    0.010140   0.000389   0.000082  -0.000001  -0.000045  -0.001627
    15  H    0.007592   0.001001  -0.000313  -0.000066  -0.000253  -0.002124
    16  H   -0.019516   0.302967  -0.031797  -0.024118  -0.014601   0.020753
    17  H   -0.013635  -0.010156   0.243537   0.083145   0.056072  -0.012093
    18  H   -0.013167  -0.018352   0.064267   0.077502   0.250192  -0.022350
    19  H   -0.024633   0.048983  -0.032689   0.003936  -0.045813   0.367214
    20  Cl  -1.352393  -0.249030  -0.102776  -0.088109   0.298645   0.032938
    21  Cl  -0.167023   0.324363   0.044582  -1.227092   0.087537   0.295325
    22  Cl  -0.102607   0.041937   0.020544  -0.000303  -0.000285  -0.042007
              13         14         15         16         17         18
     1  C    0.074698   0.034004   0.097555   0.051116   0.008440   0.016544
     2  C    0.027853  -0.006913  -0.031821   0.118312   0.003211   0.002466
     3  C    0.032416   0.098596  -0.015118  -0.030779  -0.001197  -0.000782
     4  C    0.040120   0.275065  -0.064676  -0.000599   0.000192   0.000096
     5  C    0.027993   0.018494   0.348836  -0.002974  -0.000544   0.000433
     6  C    0.015998  -0.074512   0.008344  -0.017549  -0.002046  -0.001779
     7  C    0.075769   0.010140   0.007592  -0.019516  -0.013635  -0.013167
     8  C    0.112691   0.000389   0.001001   0.302967  -0.010156  -0.018352
     9  C   -0.006258   0.000082  -0.000313  -0.031797   0.243537   0.064267
    10  C    0.006825  -0.000001  -0.000066  -0.024118   0.083145   0.077502
    11  C   -0.007944  -0.000045  -0.000253  -0.014601   0.056072   0.250192
    12  C   -0.047748  -0.001627  -0.002124   0.020753  -0.012093  -0.022350
    13  H    0.508366  -0.000288   0.000043  -0.000965   0.000026   0.000002
    14  H   -0.000288   0.508436  -0.007963  -0.000001  -0.000000  -0.000000
    15  H    0.000043  -0.007963   0.507665   0.000002   0.000000   0.000000
    16  H   -0.000965  -0.000001   0.000002   0.525634  -0.007738   0.000070
    17  H    0.000026  -0.000000   0.000000  -0.007738   0.514088  -0.000309
    18  H    0.000002  -0.000000   0.000000   0.000070  -0.000309   0.514276
    19  H   -0.000008   0.000000   0.000007  -0.000279   0.000065  -0.007724
    20  Cl  -0.002120   0.000243  -0.006361  -0.001440  -0.000076  -0.000587
    21  Cl  -0.000105   0.000000  -0.000001  -0.000239  -0.011824  -0.012109
    22  Cl  -0.012119  -0.008603   0.000887   0.000629  -0.000006  -0.000001
              19         20         21         22
     1  C   -0.018856   0.825442  -0.083648  -0.357700
     2  C   -0.013913   0.953460  -0.024859   0.812206
     3  C   -0.018510  -0.144185   0.010588  -1.290476
     4  C    0.005335   0.225604  -0.001427  -0.007998
     5  C    0.003963  -1.473358   0.002167   0.103157
     6  C    0.078999  -0.020471   0.009852   0.112008
     7  C   -0.024633  -1.352393  -0.167023  -0.102607
     8  C    0.048983  -0.249030   0.324363   0.041937
     9  C   -0.032689  -0.102776   0.044582   0.020544
    10  C    0.003936  -0.088109  -1.227092  -0.000303
    11  C   -0.045813   0.298645   0.087537  -0.000285
    12  C    0.367214   0.032938   0.295325  -0.042007
    13  H   -0.000008  -0.002120  -0.000105  -0.012119
    14  H    0.000000   0.000243   0.000000  -0.008603
    15  H    0.000007  -0.006361  -0.000001   0.000887
    16  H   -0.000279  -0.001440  -0.000239   0.000629
    17  H    0.000065  -0.000076  -0.011824  -0.000006
    18  H   -0.007724  -0.000587  -0.012109  -0.000001
    19  H    0.517627  -0.002394  -0.000055  -0.000119
    20  Cl  -0.002394  17.704998   0.000502  -0.011236
    21  Cl  -0.000055   0.000502  17.376491   0.000061
    22  Cl  -0.000119  -0.011236   0.000061  17.353360
 Mulliken charges:
               1
     1  C    0.581746
     2  C   -1.056817
     3  C    0.925186
     4  C   -0.519522
     5  C   -1.118268
     6  C    0.118301
     7  C    1.106988
     8  C   -0.652977
     9  C   -0.721895
    10  C    0.868439
    11  C   -0.747662
    12  C   -1.001968
    13  H    0.154756
    14  H    0.154500
    15  H    0.156766
    16  H    0.133111
    17  H    0.150848
    18  H    0.151314
    19  H    0.138865
    20  Cl   0.412706
    21  Cl   0.376914
    22  Cl   0.388669
 Sum of Mulliken charges =  -0.00000
 Mulliken charges with hydrogens summed into heavy atoms:
               1
     1  C    0.581746
     2  C   -0.902061
     3  C    0.925186
     4  C   -0.365022
     5  C   -0.961501
     6  C    0.118301
     7  C    1.106988
     8  C   -0.519866
     9  C   -0.571047
    10  C    0.868439
    11  C   -0.596348
    12  C   -0.863103
    20  Cl   0.412706
    21  Cl   0.376914
    22  Cl   0.388669
 Electronic spatial extent (au):  <R**2>=           5724.7766
 Charge=              0.0000 electrons
 Dipole moment (field-independent basis, Debye):
    X=             -1.2902    Y=              0.3583    Z=             -0.0427  Tot=              1.3397
 Quadrupole moment (field-independent basis, Debye-Ang):
   XX=           -111.9731   YY=           -108.8048   ZZ=           -106.5380
   XY=             -4.5480   XZ=             -1.0536   YZ=             -4.2336
 Traceless Quadrupole moment (field-independent basis, Debye-Ang):
   XX=             -2.8678   YY=              0.3005   ZZ=              2.5673
   XY=             -4.5480   XZ=             -1.0536   YZ=             -4.2336
 Octapole moment (field-independent basis, Debye-Ang**2):
  XXX=            -54.3903  YYY=             -1.8541  ZZZ=             -0.1099  XYY=              0.6166
  XXY=             34.7512  XXZ=             -0.6254  XZZ=             13.4856  YZZ=             -1.5223
  YYZ=              2.4228  XYZ=             -9.3510
 Hexadecapole moment (field-independent basis, Debye-Ang**3):
 XXXX=          -5848.0146 YYYY=          -1548.0587 ZZZZ=           -298.4397 XXXY=            -64.9273
 XXXZ=            -16.7199 YYYX=             17.1314 YYYZ=              2.2247 ZZZX=             -2.0078
 ZZZY=            -13.4920 XXYY=          -1213.4722 XXZZ=          -1023.0041 YYZZ=           -308.6474
 XXYZ=            -21.0995 YYXZ=              7.0530 ZZXY=              6.7528
 N-N= 1.166572699959D+03 E-N=-6.685114966930D+03  KE= 1.836983716062D+03
 1\1\GINC-DAMODAR\FOpt\RB3LYP\6-311+G(d,p)\C12H7Cl3\PKC\15-Mar-2022\0\\
 # opt b3lyp/6-311+g(d,p) scf=xqc\\Title Card Required\\0,1\C,-1.468613
 4197,-0.7651258853,-0.0015131965\C,-0.0693010405,-0.7982283096,0.09854
 31292\C,0.6744733894,0.3739120756,0.1079039104\C,0.0563452577,1.616068
 4781,0.0198287584\C,-1.3288628904,1.6681873928,-0.0856060876\C,-2.0787
 517058,0.49487827,-0.096853604\C,-2.2146640705,-2.0536797871,-0.009419
 4582\C,-1.9154892224,-3.0299694322,-0.9668002324\C,-2.5704842334,-4.25
 88792624,-0.9708982832\C,-3.5313241421,-4.515920353,0.0003501679\C,-3.
 8444736101,-3.5664309782,0.9683806876\C,-3.1873525793,-2.3404860054,0.
 9559341198\H,0.4310292404,-1.7538952745,0.1875098759\H,0.6424447976,2.
 5256732239,0.0294101\H,-1.8314143581,2.623166538,-0.1690924293\H,-1.17
 25583296,-2.8242231491,-1.7290118053\H,-2.3399153995,-5.004915033,-1.7
 20508743\H,-4.5897569748,-3.7843693507,1.7225160044\H,-3.4286594181,-1
 .6051777226,1.7136763131\Cl,-3.8206134678,0.6482969764,-0.2899975092\C
 l,-4.3619704575,-6.0650151747,0.0078217825\Cl,2.4238115547,0.283252412
 9,0.2415423897\\Version=EM64L-G16RevB.01\State=1-A\HF=-1842.2855384\RM
 SD=7.171e-09\RMSF=9.106e-06\Dipole=0.2014181,0.4866391,0.0204221\Quadr
 upole=-3.8875834,2.0352842,1.8522992,-1.9633693,-3.0302164,1.3012598\P
 G=C01 [X(C12H7Cl3)]\\@


 ALL MEN WHO EXPLORE
 DEPLORE
 THAT FRUSTRATING HURDLE
 THE GIRDLE.

         -- COLIN FLETCHER
 Job cpu time:       0 days 11 hours 43 minutes 29.0 seconds.
 Elapsed time:       0 days  3 hours 28 minutes 25.2 seconds.
 File lengths (MBytes):  RWF=    105 Int=      0 D2E=      0 Chk=     15 Scr=      1
 Normal termination of Gaussian 16 at Tue Mar 15 04:32:19 2022.
