 Entering Gaussian System, Link 0=g16
 Input=2,4prime,6-Trichlorobiphenyl.gjf
 Output=2,4prime,6-Trichlorobiphenyl.log
 Initial command:
 /usr/local/g16/l1.exe "/scratch/pkc/Gau-20621.inp" -scrdir="/scratch/pkc/"
 Entering Link 1 = /usr/local/g16/l1.exe PID=     20622.
  
 Copyright (c) 1988-2017, Gaussian, Inc.  All Rights Reserved.
  
 This is part of the Gaussian(R) 16 program.  It is based on
 the Gaussian(R) 09 system (copyright 2009, Gaussian, Inc.),
 the Gaussian(R) 03 system (copyright 2003, Gaussian, Inc.),
 the Gaussian(R) 98 system (copyright 1998, Gaussian, Inc.),
 the Gaussian(R) 94 system (copyright 1995, Gaussian, Inc.),
 the Gaussian 92(TM) system (copyright 1992, Gaussian, Inc.),
 the Gaussian 90(TM) system (copyright 1990, Gaussian, Inc.),
 the Gaussian 88(TM) system (copyright 1988, Gaussian, Inc.),
 the Gaussian 86(TM) system (copyright 1986, Carnegie Mellon
 University), and the Gaussian 82(TM) system (copyright 1983,
 Carnegie Mellon University). Gaussian is a federally registered
 trademark of Gaussian, Inc.
  
 This software contains proprietary and confidential information,
 including trade secrets, belonging to Gaussian, Inc.
  
 This software is provided under written license and may be
 used, copied, transmitted, or stored only in accord with that
 written license.
  
 The following legend is applicable only to US Government
 contracts under FAR:
  
                    RESTRICTED RIGHTS LEGEND
  
 Use, reproduction and disclosure by the US Government is
 subject to restrictions as set forth in subparagraphs (a)
 and (c) of the Commercial Computer Software - Restricted
 Rights clause in FAR 52.227-19.
  
 Gaussian, Inc.
 340 Quinnipiac St., Bldg. 40, Wallingford CT 06492
  
  
 ---------------------------------------------------------------
 Warning -- This program may not be used in any manner that
 competes with the business of Gaussian, Inc. or will provide
 assistance to any competitor of Gaussian, Inc.  The licensee
 of this program is prohibited from giving any competitor of
 Gaussian, Inc. access to this program.  By using this program,
 the user acknowledges that Gaussian, Inc. is engaged in the
 business of creating and licensing software in the field of
 computational chemistry and represents and warrants to the
 licensee that it is not a competitor of Gaussian, Inc. and that
 it will not use this program in any manner prohibited above.
 ---------------------------------------------------------------
  

 Cite this work as:
 Gaussian 16, Revision B.01,
 M. J. Frisch, G. W. Trucks, H. B. Schlegel, G. E. Scuseria, 
 M. A. Robb, J. R. Cheeseman, G. Scalmani, V. Barone, 
 G. A. Petersson, H. Nakatsuji, X. Li, M. Caricato, A. V. Marenich, 
 J. Bloino, B. G. Janesko, R. Gomperts, B. Mennucci, H. P. Hratchian, 
 J. V. Ortiz, A. F. Izmaylov, J. L. Sonnenberg, D. Williams-Young, 
 F. Ding, F. Lipparini, F. Egidi, J. Goings, B. Peng, A. Petrone, 
 T. Henderson, D. Ranasinghe, V. G. Zakrzewski, J. Gao, N. Rega, 
 G. Zheng, W. Liang, M. Hada, M. Ehara, K. Toyota, R. Fukuda, 
 J. Hasegawa, M. Ishida, T. Nakajima, Y. Honda, O. Kitao, H. Nakai, 
 T. Vreven, K. Throssell, J. A. Montgomery, Jr., J. E. Peralta, 
 F. Ogliaro, M. J. Bearpark, J. J. Heyd, E. N. Brothers, K. N. Kudin, 
 V. N. Staroverov, T. A. Keith, R. Kobayashi, J. Normand, 
 K. Raghavachari, A. P. Rendell, J. C. Burant, S. S. Iyengar, 
 J. Tomasi, M. Cossi, J. M. Millam, M. Klene, C. Adamo, R. Cammi, 
 J. W. Ochterski, R. L. Martin, K. Morokuma, O. Farkas, 
 J. B. Foresman, and D. J. Fox, Gaussian, Inc., Wallingford CT, 2016.
 
 ******************************************
 Gaussian 16:  EM64L-G16RevB.01 20-Dec-2017
                15-Mar-2022 
 ******************************************
 %mem=10GB
 %nprocshared=4
 Will use up to    4 processors via shared memory.
 --------------------------------
 # opt b3lyp/6-311+g(d,p) scf=xqc
 --------------------------------
 1/18=20,19=15,26=3,38=1/1,3;
 2/9=110,12=2,17=6,18=5,40=1/2;
 3/5=4,6=6,7=111,11=2,25=1,30=1,71=1,74=-5/1,2,3;
 4//1;
 5/5=2,8=3,13=1,38=5/2,8;
 6/7=2,8=2,9=2,10=2,28=1/1;
 7//1,2,3,16;
 1/18=20,19=15,26=3/3(2);
 2/9=110/2;
 99//99;
 2/9=110/2;
 3/5=4,6=6,7=111,11=2,25=1,30=1,71=1,74=-5/1,2,3;
 4/5=5,16=3,69=1/1;
 5/5=2,8=3,13=1,38=5/2,8;
 7//1,2,3,16;
 1/18=20,19=15,26=3/3(-5);
 2/9=110/2;
 6/7=2,8=2,9=2,10=2,19=2,28=1/1;
 99/9=1/99;
 -------------------
 Title Card Required
 -------------------
 Symbolic Z-matrix:
 Charge =  0 Multiplicity = 1
 C                    -0.42463  -0.11325  -0.00285 
 C                     0.90775  -0.08336  -0.4362 
 C                     1.61564   1.12609  -0.44227 
 C                     0.99115   2.30566  -0.015 
 C                    -0.34123   2.27577   0.41835 
 C                    -1.04912   1.06632   0.42442 
 C                    -1.20254  -1.44231   0.00382 
 C                    -0.57805  -2.62188  -0.42345 
 C                    -1.28594  -3.83133  -0.41738 
 C                    -2.61832  -3.86122   0.01597 
 C                    -3.24281  -2.68165   0.44325 
 C                    -2.53492  -1.4722    0.43717 
 H                     1.38456  -0.98398  -0.76243 
 H                     2.63294   1.14891  -0.77314 
 H                    -0.81804   3.17639   0.74458 
 H                    -2.06642   1.0435    0.75529 
 H                    -0.80913  -4.73195  -0.74361 
 H                    -3.15882  -4.78466   0.02061 
 H                    -4.26011  -2.70447   0.77412 
 Cl                   -3.3192    0.0092    0.97378 
 Cl                    1.88019   3.82459  -0.02262 
 Cl                    1.09527  -2.58435  -0.96769 
 

 GradGradGradGradGradGradGradGradGradGradGradGradGradGradGradGradGradGrad
 Berny optimization.
 Initialization pass.
                           ----------------------------
                           !    Initial Parameters    !
                           ! (Angstroms and Degrees)  !
 --------------------------                            --------------------------
 ! Name  Definition              Value          Derivative Info.                !
 --------------------------------------------------------------------------------
 ! R1    R(1,2)                  1.4014         estimate D2E/DX2                !
 ! R2    R(1,6)                  1.4014         estimate D2E/DX2                !
 ! R3    R(1,7)                  1.54           estimate D2E/DX2                !
 ! R4    R(2,3)                  1.4014         estimate D2E/DX2                !
 ! R5    R(2,13)                 1.07           estimate D2E/DX2                !
 ! R6    R(3,4)                  1.4014         estimate D2E/DX2                !
 ! R7    R(3,14)                 1.07           estimate D2E/DX2                !
 ! R8    R(4,5)                  1.4014         estimate D2E/DX2                !
 ! R9    R(4,21)                 1.76           estimate D2E/DX2                !
 ! R10   R(5,6)                  1.4014         estimate D2E/DX2                !
 ! R11   R(5,15)                 1.07           estimate D2E/DX2                !
 ! R12   R(6,16)                 1.07           estimate D2E/DX2                !
 ! R13   R(7,8)                  1.4014         estimate D2E/DX2                !
 ! R14   R(7,12)                 1.4014         estimate D2E/DX2                !
 ! R15   R(8,9)                  1.4014         estimate D2E/DX2                !
 ! R16   R(8,22)                 1.76           estimate D2E/DX2                !
 ! R17   R(9,10)                 1.4014         estimate D2E/DX2                !
 ! R18   R(9,17)                 1.07           estimate D2E/DX2                !
 ! R19   R(10,11)                1.4014         estimate D2E/DX2                !
 ! R20   R(10,18)                1.07           estimate D2E/DX2                !
 ! R21   R(11,12)                1.4014         estimate D2E/DX2                !
 ! R22   R(11,19)                1.07           estimate D2E/DX2                !
 ! R23   R(12,20)                1.76           estimate D2E/DX2                !
 ! A1    A(2,1,6)              120.0            estimate D2E/DX2                !
 ! A2    A(2,1,7)              120.0            estimate D2E/DX2                !
 ! A3    A(6,1,7)              120.0            estimate D2E/DX2                !
 ! A4    A(1,2,3)              120.0            estimate D2E/DX2                !
 ! A5    A(1,2,13)             120.0            estimate D2E/DX2                !
 ! A6    A(3,2,13)             120.0            estimate D2E/DX2                !
 ! A7    A(2,3,4)              120.0            estimate D2E/DX2                !
 ! A8    A(2,3,14)             120.0            estimate D2E/DX2                !
 ! A9    A(4,3,14)             120.0            estimate D2E/DX2                !
 ! A10   A(3,4,5)              120.0            estimate D2E/DX2                !
 ! A11   A(3,4,21)             120.0            estimate D2E/DX2                !
 ! A12   A(5,4,21)             120.0            estimate D2E/DX2                !
 ! A13   A(4,5,6)              120.0            estimate D2E/DX2                !
 ! A14   A(4,5,15)             120.0            estimate D2E/DX2                !
 ! A15   A(6,5,15)             120.0            estimate D2E/DX2                !
 ! A16   A(1,6,5)              120.0            estimate D2E/DX2                !
 ! A17   A(1,6,16)             120.0            estimate D2E/DX2                !
 ! A18   A(5,6,16)             120.0            estimate D2E/DX2                !
 ! A19   A(1,7,8)              120.0            estimate D2E/DX2                !
 ! A20   A(1,7,12)             120.0            estimate D2E/DX2                !
 ! A21   A(8,7,12)             120.0            estimate D2E/DX2                !
 ! A22   A(7,8,9)              120.0            estimate D2E/DX2                !
 ! A23   A(7,8,22)             120.0            estimate D2E/DX2                !
 ! A24   A(9,8,22)             120.0            estimate D2E/DX2                !
 ! A25   A(8,9,10)             120.0            estimate D2E/DX2                !
 ! A26   A(8,9,17)             120.0            estimate D2E/DX2                !
 ! A27   A(10,9,17)            120.0            estimate D2E/DX2                !
 ! A28   A(9,10,11)            120.0            estimate D2E/DX2                !
 ! A29   A(9,10,18)            120.0            estimate D2E/DX2                !
 ! A30   A(11,10,18)           120.0            estimate D2E/DX2                !
 ! A31   A(10,11,12)           120.0            estimate D2E/DX2                !
 ! A32   A(10,11,19)           120.0            estimate D2E/DX2                !
 ! A33   A(12,11,19)           120.0            estimate D2E/DX2                !
 ! A34   A(7,12,11)            120.0            estimate D2E/DX2                !
 ! A35   A(7,12,20)            120.0            estimate D2E/DX2                !
 ! A36   A(11,12,20)           120.0            estimate D2E/DX2                !
 ! D1    D(6,1,2,3)              0.0001         estimate D2E/DX2                !
 ! D2    D(6,1,2,13)           180.0            estimate D2E/DX2                !
 ! D3    D(7,1,2,3)           -180.0            estimate D2E/DX2                !
 ! D4    D(7,1,2,13)            -0.0001         estimate D2E/DX2                !
 ! D5    D(2,1,6,5)             -0.0001         estimate D2E/DX2                !
 ! D6    D(2,1,6,16)           180.0            estimate D2E/DX2                !
 ! D7    D(7,1,6,5)            180.0            estimate D2E/DX2                !
 ! D8    D(7,1,6,16)             0.0            estimate D2E/DX2                !
 ! D9    D(2,1,7,8)             -0.0001         estimate D2E/DX2                !
 ! D10   D(2,1,7,12)           179.9998         estimate D2E/DX2                !
 ! D11   D(6,1,7,8)            179.9999         estimate D2E/DX2                !
 ! D12   D(6,1,7,12)            -0.0002         estimate D2E/DX2                !
 ! D13   D(1,2,3,4)              0.0            estimate D2E/DX2                !
 ! D14   D(1,2,3,14)           180.0            estimate D2E/DX2                !
 ! D15   D(13,2,3,4)          -179.9999         estimate D2E/DX2                !
 ! D16   D(13,2,3,14)            0.0001         estimate D2E/DX2                !
 ! D17   D(2,3,4,5)             -0.0001         estimate D2E/DX2                !
 ! D18   D(2,3,4,21)           180.0            estimate D2E/DX2                !
 ! D19   D(14,3,4,5)           179.9999         estimate D2E/DX2                !
 ! D20   D(14,3,4,21)            0.0            estimate D2E/DX2                !
 ! D21   D(3,4,5,6)              0.0001         estimate D2E/DX2                !
 ! D22   D(3,4,5,15)          -179.9999         estimate D2E/DX2                !
 ! D23   D(21,4,5,6)          -180.0            estimate D2E/DX2                !
 ! D24   D(21,4,5,15)            0.0            estimate D2E/DX2                !
 ! D25   D(4,5,6,1)              0.0            estimate D2E/DX2                !
 ! D26   D(4,5,6,16)           179.9999         estimate D2E/DX2                !
 ! D27   D(15,5,6,1)           180.0            estimate D2E/DX2                !
 ! D28   D(15,5,6,16)           -0.0001         estimate D2E/DX2                !
 ! D29   D(1,7,8,9)            179.9999         estimate D2E/DX2                !
 ! D30   D(1,7,8,22)             0.0001         estimate D2E/DX2                !
 ! D31   D(12,7,8,9)             0.0001         estimate D2E/DX2                !
 ! D32   D(12,7,8,22)         -179.9998         estimate D2E/DX2                !
 ! D33   D(1,7,12,11)         -179.9999         estimate D2E/DX2                !
 ! D34   D(1,7,12,20)            0.0            estimate D2E/DX2                !
 ! D35   D(8,7,12,11)           -0.0001         estimate D2E/DX2                !
 ! D36   D(8,7,12,20)          179.9999         estimate D2E/DX2                !
 ! D37   D(7,8,9,10)             0.0            estimate D2E/DX2                !
 ! D38   D(7,8,9,17)           180.0            estimate D2E/DX2                !
 ! D39   D(22,8,9,10)          179.9998         estimate D2E/DX2                !
 ! D40   D(22,8,9,17)           -0.0002         estimate D2E/DX2                !
 ! D41   D(8,9,10,11)            0.0            estimate D2E/DX2                !
 ! D42   D(8,9,10,18)         -179.9999         estimate D2E/DX2                !
 ! D43   D(17,9,10,11)         180.0            estimate D2E/DX2                !
 ! D44   D(17,9,10,18)           0.0001         estimate D2E/DX2                !
 ! D45   D(9,10,11,12)           0.0            estimate D2E/DX2                !
 ! D46   D(9,10,11,19)        -179.9998         estimate D2E/DX2                !
 ! D47   D(18,10,11,12)        179.9999         estimate D2E/DX2                !
 ! D48   D(18,10,11,19)          0.0001         estimate D2E/DX2                !
 ! D49   D(10,11,12,7)           0.0            estimate D2E/DX2                !
 ! D50   D(10,11,12,20)       -179.9999         estimate D2E/DX2                !
 ! D51   D(19,11,12,7)         179.9999         estimate D2E/DX2                !
 ! D52   D(19,11,12,20)         -0.0001         estimate D2E/DX2                !
 --------------------------------------------------------------------------------
 Trust Radius=3.00D-01 FncErr=1.00D-07 GrdErr=1.00D-06 EigMax=2.50D+02 EigMin=1.00D-04
 Number of steps in this run=    121 maximum allowed number of steps=    132.
 GradGradGradGradGradGradGradGradGradGradGradGradGradGradGradGradGradGrad

                          Input orientation:                          
 ---------------------------------------------------------------------
 Center     Atomic      Atomic             Coordinates (Angstroms)
 Number     Number       Type             X           Y           Z
 ---------------------------------------------------------------------
      1          6           0       -0.424633   -0.113246   -0.002851
      2          6           0        0.907748   -0.083360   -0.436198
      3          6           0        1.615642    1.126091   -0.442270
      4          6           0        0.991154    2.305656   -0.014995
      5          6           0       -0.341228    2.275770    0.418349
      6          6           0       -1.049121    1.066319    0.424422
      7          6           0       -1.202538   -1.442313    0.003823
      8          6           0       -0.578051   -2.621878   -0.423452
      9          6           0       -1.285944   -3.831330   -0.417378
     10          6           0       -2.618324   -3.861216    0.015972
     11          6           0       -3.242811   -2.681651    0.443247
     12          6           0       -2.534918   -1.472200    0.437173
     13          1           0        1.384559   -0.983985   -0.762430
     14          1           0        2.632944    1.148909   -0.773139
     15          1           0       -0.818038    3.176395    0.744581
     16          1           0       -2.066424    1.043501    0.755291
     17          1           0       -0.809134   -4.731954   -0.743612
     18          1           0       -3.158815   -4.784659    0.020612
     19          1           0       -4.260112   -2.704471    0.774122
     20         17           0       -3.319203    0.009200    0.973785
     21         17           0        1.880189    3.824589   -0.022621
     22         17           0        1.095270   -2.584345   -0.967686
 ---------------------------------------------------------------------
                    Distance matrix (angstroms):
                    1          2          3          4          5
     1  C    0.000000
     2  C    1.401400   0.000000
     3  C    2.427296   1.401400   0.000000
     4  C    2.802800   2.427296   1.401400   0.000000
     5  C    2.427296   2.802800   2.427296   1.401400   0.000000
     6  C    1.401400   2.427296   2.802800   2.427296   1.401400
     7  C    1.540000   2.548270   3.838989   4.342800   3.838989
     8  C    2.548270   2.941400   4.342800   5.187469   4.975106
     9  C    3.838989   4.342800   5.744200   6.558176   6.235992
    10  C    4.342800   5.187469   6.558176   7.145600   6.558176
    11  C    3.838989   4.975106   6.235992   6.558176   5.744200
    12  C    2.548270   3.813607   4.975106   5.187469   4.342800
    13  H    2.146700   1.070000   2.146700   3.396345   3.872800
    14  H    3.396345   2.146700   1.070000   2.146700   3.396345
    15  H    3.396345   3.872800   3.396345   2.146700   1.070000
    16  H    2.146700   3.396345   3.872800   3.396345   2.146700
    17  H    4.693509   4.965039   6.347206   7.300676   7.118798
    18  H    5.412800   6.232802   7.612271   8.215600   7.612271
    19  H    4.693509   5.919617   7.118798   7.300676   6.347206
    20  Cl   3.057342   4.456874   5.254079   4.983028   3.783409
    21  Cl   4.562800   4.048303   2.743718   1.760000   2.743718
    22  Cl   3.057342   2.563702   3.783409   4.983028   5.254079
                    6          7          8          9         10
     6  C    0.000000
     7  C    2.548270   0.000000
     8  C    3.813607   1.401400   0.000000
     9  C    4.975106   2.427296   1.401400   0.000000
    10  C    5.187469   2.802800   2.427296   1.401400   0.000000
    11  C    4.342800   2.427296   2.802800   2.427296   1.401400
    12  C    2.941400   1.401400   2.427296   2.802800   2.427296
    13  H    3.396345   2.736837   2.578650   3.918930   4.990735
    14  H    3.872800   4.693509   4.965039   6.347206   7.300676
    15  H    2.146700   4.693509   5.919617   7.118798   7.300676
    16  H    1.070000   2.736837   4.127917   5.074276   4.990735
    17  H    5.919617   3.396345   2.146700   1.070000   2.146700
    18  H    6.232802   3.872800   3.396345   2.146700   1.070000
    19  H    4.965039   3.396345   3.872800   3.396345   2.146700
    20  Cl   2.563702   2.743718   4.048303   4.562800   4.048303
    21  Cl   4.048303   6.102800   6.910901   8.294174   8.905600
    22  Cl   4.456874   2.743718   1.760000   2.743718   4.048303
                   11         12         13         14         15
    11  C    0.000000
    12  C    1.401400   0.000000
    13  H    5.074276   4.127917   0.000000
    14  H    7.118798   5.919617   2.471400   0.000000
    15  H    6.347206   4.965039   4.942800   4.280590   0.000000
    16  H    3.918930   2.578650   4.280590   4.942800   2.471400
    17  H    3.396345   3.872800   4.342800   6.814200   8.047159
    18  H    2.146700   3.396345   5.974992   8.329571   8.329571
    19  H    1.070000   2.146700   6.097816   8.047159   6.814200
    20  Cl   2.743718   1.760000   5.111382   6.307038   4.042212
    21  Cl   8.294174   6.910901   4.890332   2.879094   2.879094
    22  Cl   4.562800   4.048303   1.639199   4.042212   6.307038
                   16         17         18         19         20
    16  H    0.000000
    17  H    6.097816   0.000000
    18  H    5.974992   2.471400   0.000000
    19  H    4.342800   4.280590   2.471400   0.000000
    20  Cl   1.639199   5.632800   4.890332   2.879094   0.000000
    21  Cl   4.890332   8.998151   9.975600   8.998151   6.525618
    22  Cl   5.111382   2.879094   4.890332   5.632800   5.475705
                   21         22
    21  Cl   0.000000
    22  Cl   6.525618   0.000000
 Stoichiometry    C12H7Cl3
 Framework group  C1[X(C12H7Cl3)]
 Deg. of freedom    60
 Full point group                 C1      NOp   1
 Largest Abelian subgroup         C1      NOp   1
 Largest concise Abelian subgroup C1      NOp   1
                         Standard orientation:                         
 ---------------------------------------------------------------------
 Center     Atomic      Atomic             Coordinates (Angstroms)
 Number     Number       Type             X           Y           Z
 ---------------------------------------------------------------------
      1          6           0       -0.248443    0.000000    0.000002
      2          6           0       -0.949143   -1.213648    0.000000
      3          6           0       -2.350543   -1.213648   -0.000001
      4          6           0       -3.051243    0.000000   -0.000000
      5          6           0       -2.350543    1.213648    0.000004
      6          6           0       -0.949143    1.213648    0.000005
      7          6           0        1.291557    0.000000    0.000002
      8          6           0        1.992257   -1.213648    0.000002
      9          6           0        3.393657   -1.213648    0.000001
     10          6           0        4.094357    0.000000   -0.000001
     11          6           0        3.393657    1.213648   -0.000001
     12          6           0        1.992257    1.213648    0.000000
     13          1           0       -0.414143   -2.140295   -0.000002
     14          1           0       -2.885543   -2.140295   -0.000003
     15          1           0       -2.885543    2.140295    0.000006
     16          1           0       -0.414143    2.140295    0.000007
     17          1           0        3.928657   -2.140295    0.000001
     18          1           0        5.164357    0.000000   -0.000003
     19          1           0        3.928657    2.140295   -0.000005
     20         17           0        1.112257    2.737853   -0.000002
     21         17           0       -4.811243    0.000000   -0.000002
     22         17           0        1.112257   -2.737853   -0.000001
 ---------------------------------------------------------------------
 Rotational constants (GHZ):           0.7289005           0.2761147           0.2002558
 Standard basis: 6-311+G(d,p) (5D, 7F)
 There are   411 symmetry adapted cartesian basis functions of A   symmetry.
 There are   396 symmetry adapted basis functions of A   symmetry.
   396 basis functions,   647 primitive gaussians,   411 cartesian basis functions
    65 alpha electrons       65 beta electrons
       nuclear repulsion energy      1219.4919109050 Hartrees.
 NAtoms=   22 NActive=   22 NUniq=   22 SFac= 1.00D+00 NAtFMM=   60 NAOKFM=F Big=F
 Integral buffers will be    131072 words long.
 Raffenetti 2 integral format.
 Two-electron integral symmetry is turned on.
 One-electron integrals computed using PRISM.
 NBasis=   396 RedAO= T EigKep=  1.33D-06  NBF=   396
 NBsUse=   391 1.00D-06 EigRej=  7.48D-07 NBFU=   391
 ExpMin= 4.38D-02 ExpMax= 1.06D+05 ExpMxC= 3.62D+03 IAcc=3 IRadAn=         5 AccDes= 0.00D+00
 Harris functional with IExCor=  402 and IRadAn=       5 diagonalized for initial guess.
 HarFok:  IExCor=  402 AccDes= 0.00D+00 IRadAn=         5 IDoV= 1 UseB2=F ITyADJ=14
 ICtDFT=  3500011 ScaDFX=  1.000000  1.000000  1.000000  1.000000
 FoFCou: FMM=F IPFlag=           0 FMFlag=      100000 FMFlg1=           0
         NFxFlg=           0 DoJE=T BraDBF=F KetDBF=T FulRan=T
         wScrn=  0.000000 ICntrl=       500 IOpCl=  0 I1Cent=   200000004 NGrid=           0
         NMat0=    1 NMatS0=      1 NMatT0=    0 NMatD0=    1 NMtDS0=    0 NMtDT0=    0
 Petite list used in FoFCou.
 Requested convergence on RMS density matrix=1.00D-08 within  32 cycles.
 Requested convergence on MAX density matrix=1.00D-06.
 Requested convergence on             energy=1.00D-06.
 No special actions if energy rises.
 SCF Done:  E(RB3LYP) =  -1842.16543354     A.U. after   15 cycles
            NFock= 15  Conv=0.48D-08     -V/T= 2.0025
 QCSCF skips out because SCF is already converged.

 **********************************************************************

            Population analysis using the SCF Density.

 **********************************************************************

 Orbital symmetries:
       Occupied  (A) (A) (A) (A) (A) (A) (A) (A) (A) (A) (A) (A)
                 (A) (A) (A) (A) (A) (A) (A) (A) (A) (A) (A) (A)
                 (A) (A) (A) (A) (A) (A) (A) (A) (A) (A) (A) (A)
                 (A) (A) (A) (A) (A) (A) (A) (A) (A) (A) (A) (A)
                 (A) (A) (A) (A) (A) (A) (A) (A) (A) (A) (A) (A)
                 (A) (A) (A) (A) (A)
       Virtual   (A) (A) (A) (A) (A) (A) (A) (A) (A) (A) (A) (A)
                 (A) (A) (A) (A) (A) (A) (A) (A) (A) (A) (A) (A)
                 (A) (A) (A) (A) (A) (A) (A) (A) (A) (A) (A) (A)
                 (A) (A) (A) (A) (A) (A) (A) (A) (A) (A) (A) (A)
                 (A) (A) (A) (A) (A) (A) (A) (A) (A) (A) (A) (A)
                 (A) (A) (A) (A) (A) (A) (A) (A) (A) (A) (A) (A)
                 (A) (A) (A) (A) (A) (A) (A) (A) (A) (A) (A) (A)
                 (A) (A) (A) (A) (A) (A) (A) (A) (A) (A) (A) (A)
                 (A) (A) (A) (A) (A) (A) (A) (A) (A) (A) (A) (A)
                 (A) (A) (A) (A) (A) (A) (A) (A) (A) (A) (A) (A)
                 (A) (A) (A) (A) (A) (A) (A) (A) (A) (A) (A) (A)
                 (A) (A) (A) (A) (A) (A) (A) (A) (A) (A) (A) (A)
                 (A) (A) (A) (A) (A) (A) (A) (A) (A) (A) (A) (A)
                 (A) (A) (A) (A) (A) (A) (A) (A) (A) (A) (A) (A)
                 (A) (A) (A) (A) (A) (A) (A) (A) (A) (A) (A) (A)
                 (A) (A) (A) (A) (A) (A) (A) (A) (A) (A) (A) (A)
                 (A) (A) (A) (A) (A) (A) (A) (A) (A) (A) (A) (A)
                 (A) (A) (A) (A) (A) (A) (A) (A) (A) (A) (A) (A)
                 (A) (A) (A) (A) (A) (A) (A) (A) (A) (A) (A) (A)
                 (A) (A) (A) (A) (A) (A) (A) (A) (A) (A) (A) (A)
                 (A) (A) (A) (A) (A) (A) (A) (A) (A) (A) (A) (A)
                 (A) (A) (A) (A) (A) (A) (A) (A) (A) (A) (A) (A)
                 (A) (A) (A) (A) (A) (A) (A) (A) (A) (A) (A) (A)
                 (A) (A) (A) (A) (A) (A) (A) (A) (A) (A) (A) (A)
                 (A) (A) (A) (A) (A) (A) (A) (A) (A) (A) (A) (A)
                 (A) (A) (A) (A) (A) (A) (A) (A) (A) (A) (A) (A)
                 (A) (A) (A) (A) (A) (A) (A) (A) (A) (A) (A) (A)
                 (A) (A)
 The electronic state is 1-A.
 Alpha  occ. eigenvalues -- -101.57530-101.57530-101.55188 -10.26770 -10.26769
 Alpha  occ. eigenvalues --  -10.23968 -10.23110 -10.21267 -10.21261 -10.21053
 Alpha  occ. eigenvalues --  -10.20354 -10.18512 -10.18511 -10.16765 -10.16764
 Alpha  occ. eigenvalues --   -9.49313  -9.49313  -9.46638  -7.25716  -7.25716
 Alpha  occ. eigenvalues --   -7.24764  -7.24764  -7.24748  -7.24748  -7.23087
 Alpha  occ. eigenvalues --   -7.22132  -7.22092  -0.93926  -0.91047  -0.88924
 Alpha  occ. eigenvalues --   -0.85897  -0.83935  -0.78853  -0.76947  -0.75233
 Alpha  occ. eigenvalues --   -0.73336  -0.64123  -0.63931  -0.62813  -0.60626
 Alpha  occ. eigenvalues --   -0.54483  -0.53426  -0.51506  -0.48779  -0.48458
 Alpha  occ. eigenvalues --   -0.47980  -0.46308  -0.44883  -0.44643  -0.44147
 Alpha  occ. eigenvalues --   -0.40904  -0.39987  -0.39447  -0.39169  -0.38799
 Alpha  occ. eigenvalues --   -0.38048  -0.35104  -0.34017  -0.31900  -0.29419
 Alpha  occ. eigenvalues --   -0.29213  -0.27590  -0.27458  -0.26119  -0.24061
 Alpha virt. eigenvalues --   -0.06181  -0.05245  -0.02973  -0.02346  -0.00388
 Alpha virt. eigenvalues --   -0.00263  -0.00049   0.01665   0.01726   0.01751
 Alpha virt. eigenvalues --    0.02694   0.04179   0.04289   0.04463   0.05407
 Alpha virt. eigenvalues --    0.05855   0.06354   0.06694   0.06969   0.08178
 Alpha virt. eigenvalues --    0.08229   0.08641   0.08812   0.09264   0.09537
 Alpha virt. eigenvalues --    0.10692   0.11481   0.11511   0.12131   0.12554
 Alpha virt. eigenvalues --    0.13193   0.13210   0.13292   0.14239   0.14607
 Alpha virt. eigenvalues --    0.14706   0.15350   0.15870   0.16633   0.16675
 Alpha virt. eigenvalues --    0.16988   0.17413   0.17810   0.18068   0.18165
 Alpha virt. eigenvalues --    0.18640   0.19239   0.19582   0.19695   0.20565
 Alpha virt. eigenvalues --    0.20676   0.21037   0.21645   0.22049   0.22098
 Alpha virt. eigenvalues --    0.22722   0.22887   0.23965   0.24299   0.24643
 Alpha virt. eigenvalues --    0.24725   0.25357   0.26537   0.26585   0.27085
 Alpha virt. eigenvalues --    0.28140   0.28305   0.28389   0.29436   0.30321
 Alpha virt. eigenvalues --    0.30323   0.31451   0.31913   0.32530   0.33391
 Alpha virt. eigenvalues --    0.34090   0.34860   0.35878   0.37984   0.39262
 Alpha virt. eigenvalues --    0.41069   0.41720   0.43114   0.43881   0.43888
 Alpha virt. eigenvalues --    0.44873   0.45045   0.46808   0.47050   0.48308
 Alpha virt. eigenvalues --    0.49236   0.50397   0.51989   0.52188   0.52354
 Alpha virt. eigenvalues --    0.52626   0.53565   0.54156   0.54767   0.56186
 Alpha virt. eigenvalues --    0.56753   0.57184   0.58672   0.59407   0.59689
 Alpha virt. eigenvalues --    0.59792   0.60515   0.61894   0.62477   0.63967
 Alpha virt. eigenvalues --    0.64253   0.64615   0.65058   0.66714   0.67708
 Alpha virt. eigenvalues --    0.68086   0.68836   0.69205   0.69604   0.69880
 Alpha virt. eigenvalues --    0.72313   0.74397   0.78638   0.79120   0.79459
 Alpha virt. eigenvalues --    0.81382   0.81427   0.81546   0.82458   0.83466
 Alpha virt. eigenvalues --    0.83751   0.83900   0.84703   0.85144   0.85920
 Alpha virt. eigenvalues --    0.86951   0.88488   0.88783   0.89022   0.89187
 Alpha virt. eigenvalues --    0.89954   0.92097   0.93005   0.93059   0.93805
 Alpha virt. eigenvalues --    0.94554   0.95615   0.95787   0.95937   0.96567
 Alpha virt. eigenvalues --    0.98846   1.00457   1.00663   1.00752   1.01256
 Alpha virt. eigenvalues --    1.01947   1.02461   1.07407   1.08363   1.08985
 Alpha virt. eigenvalues --    1.09019   1.11091   1.11961   1.12619   1.12993
 Alpha virt. eigenvalues --    1.13990   1.19542   1.22772   1.22874   1.25027
 Alpha virt. eigenvalues --    1.28523   1.28894   1.29169   1.29291   1.32518
 Alpha virt. eigenvalues --    1.33041   1.35778   1.41321   1.45071   1.47256
 Alpha virt. eigenvalues --    1.47790   1.50173   1.50450   1.54295   1.54417
 Alpha virt. eigenvalues --    1.55392   1.57009   1.57057   1.59290   1.59600
 Alpha virt. eigenvalues --    1.59914   1.63009   1.63943   1.66977   1.67915
 Alpha virt. eigenvalues --    1.70266   1.73049   1.73476   1.76243   1.76856
 Alpha virt. eigenvalues --    1.78413   1.83939   1.84186   1.85119   1.86495
 Alpha virt. eigenvalues --    1.87584   1.88435   1.89602   1.91550   1.93497
 Alpha virt. eigenvalues --    1.95144   1.95613   1.95641   1.96085   1.97995
 Alpha virt. eigenvalues --    1.99124   2.00778   2.03590   2.03869   2.07716
 Alpha virt. eigenvalues --    2.08165   2.08742   2.10938   2.18347   2.20043
 Alpha virt. eigenvalues --    2.23781   2.24656   2.25972   2.26274   2.27255
 Alpha virt. eigenvalues --    2.28264   2.29023   2.35779   2.36300   2.36946
 Alpha virt. eigenvalues --    2.40707   2.41069   2.43910   2.44046   2.48061
 Alpha virt. eigenvalues --    2.52019   2.52265   2.54673   2.56684   2.60497
 Alpha virt. eigenvalues --    2.61046   2.61440   2.65220   2.66464   2.67065
 Alpha virt. eigenvalues --    2.68591   2.69366   2.71767   2.73325   2.73599
 Alpha virt. eigenvalues --    2.74303   2.74353   2.76022   2.76094   2.76638
 Alpha virt. eigenvalues --    2.79941   2.81845   2.82663   2.83318   2.84204
 Alpha virt. eigenvalues --    2.87193   2.92007   2.93548   2.94581   3.00505
 Alpha virt. eigenvalues --    3.05460   3.08082   3.09890   3.12501   3.15251
 Alpha virt. eigenvalues --    3.18956   3.20311   3.23337   3.25422   3.35057
 Alpha virt. eigenvalues --    3.35293   3.37101   3.42400   3.50303   3.53226
 Alpha virt. eigenvalues --    3.57890   3.62736   3.70735   3.72300   3.80679
 Alpha virt. eigenvalues --    3.97699   4.02955   4.02986   4.09577   4.17347
 Alpha virt. eigenvalues --    4.22360   4.46262   4.79934   4.84485   9.78132
 Alpha virt. eigenvalues --    9.85699   9.87003  23.43199  23.61505  23.85550
 Alpha virt. eigenvalues --   23.86939  23.90143  23.97779  23.98200  24.02047
 Alpha virt. eigenvalues --   24.03469  24.09074  24.11267  24.16400  25.83158
 Alpha virt. eigenvalues --   25.83887  25.84012  26.13370  26.56159  26.63355
 Alpha virt. eigenvalues --   26.68778  26.72692  26.83074 215.77223 215.87851
 Alpha virt. eigenvalues --  215.89210
          Condensed to atoms (all electrons):
               1          2          3          4          5          6
     1  C   16.603806   0.467557  -2.710282  -1.641625  -2.710282   0.467557
     2  C    0.467557  14.588780   2.201413  -2.231887  -2.437205  -4.572812
     3  C   -2.710282   2.201413  15.006909   1.212218  -5.351961  -2.437205
     4  C   -1.641625  -2.231887   1.212218  11.478237   1.212218  -2.231887
     5  C   -2.710282  -2.437205  -5.351961   1.212218  15.006908   2.201414
     6  C    0.467557  -4.572812  -2.437205  -2.231887   2.201414  14.588780
     7  C    5.426487  -0.564735  -1.248589  -0.590833  -1.248589  -0.564735
     8  C   -1.953478   3.266009   1.326143  -0.225064  -1.626344  -2.957859
     9  C   -3.161214  -0.965969   0.301433  -0.133116  -0.307860   0.294632
    10  C   -0.593306   0.273370   0.080015  -0.006012   0.080015   0.273370
    11  C   -3.161214   0.294632  -0.307860  -0.133116   0.301433  -0.965969
    12  C   -1.953478  -2.957858  -1.626344  -0.225064   1.326143   3.266009
    13  H   -0.353574   0.553083   0.203433   0.006185  -0.095011  -0.026998
    14  H    0.084041  -0.035323   0.223023   0.024966   0.044814  -0.000551
    15  H    0.084041  -0.000551   0.044814   0.024966   0.223023  -0.035323
    16  H   -0.353574  -0.026998  -0.095011   0.006185   0.203433   0.553083
    17  H    0.018446   0.005479   0.000054  -0.000036   0.000192   0.000958
    18  H   -0.001516   0.000330  -0.000002   0.000042  -0.000002   0.000330
    19  H    0.018446   0.000958   0.000192  -0.000036   0.000054   0.005479
    20  Cl   0.910304   0.313261   0.253921  -0.077313  -1.029912  -1.296805
    21  Cl  -0.159217   0.020700   0.270553  -1.104394   0.270553   0.020700
    22  Cl   0.910304  -1.296805  -1.029912  -0.077313   0.253921   0.313261
               7          8          9         10         11         12
     1  C    5.426487  -1.953478  -3.161214  -0.593306  -3.161214  -1.953478
     2  C   -0.564735   3.266009  -0.965969   0.273370   0.294632  -2.957858
     3  C   -1.248589   1.326143   0.301433   0.080015  -0.307860  -1.626344
     4  C   -0.590833  -0.225064  -0.133116  -0.006012  -0.133116  -0.225064
     5  C   -1.248589  -1.626344  -0.307860   0.080015   0.301433   1.326143
     6  C   -0.564735  -2.957859   0.294632   0.273370  -0.965969   3.266009
     7  C   11.801802   0.659938  -4.217675  -0.415258  -4.217675   0.659939
     8  C    0.659938  17.805626  -5.087757  -2.481801   2.537570  -4.506433
     9  C   -4.217675  -5.087757  14.992459   1.246659  -0.005313   2.537570
    10  C   -0.415258  -2.481801   1.246659   9.268277   1.246659  -2.481801
    11  C   -4.217675   2.537570  -0.005313   1.246659  14.992459  -5.087757
    12  C    0.659939  -4.506433   2.537570  -2.481801  -5.087757  17.805626
    13  H   -0.122090   0.115168   0.186460   0.032157  -0.016441  -0.025447
    14  H    0.021921  -0.006811  -0.004634  -0.000284   0.001110   0.006606
    15  H    0.021921   0.006606   0.001110  -0.000284  -0.004634  -0.006811
    16  H   -0.122090  -0.025447  -0.016441   0.032157   0.186460   0.115168
    17  H    0.094045   0.026677   0.318943  -0.032525  -0.049589  -0.012883
    18  H   -0.010652   0.022836  -0.036342   0.384336  -0.036342   0.022836
    19  H    0.094045  -0.012883  -0.049589  -0.032525   0.318943   0.026677
    20  Cl   0.396079   0.345211   0.237945  -0.201457  -0.157245  -1.136485
    21  Cl  -0.070998  -0.024768  -0.002502  -0.000654  -0.002502  -0.024768
    22  Cl   0.396079  -1.136485  -0.157245  -0.201457   0.237945   0.345211
              13         14         15         16         17         18
     1  C   -0.353574   0.084041   0.084041  -0.353574   0.018446  -0.001516
     2  C    0.553083  -0.035323  -0.000551  -0.026998   0.005479   0.000330
     3  C    0.203433   0.223023   0.044814  -0.095011   0.000054  -0.000002
     4  C    0.006185   0.024966   0.024966   0.006185  -0.000036   0.000042
     5  C   -0.095011   0.044814   0.223023   0.203433   0.000192  -0.000002
     6  C   -0.026998  -0.000551  -0.035323   0.553083   0.000958   0.000330
     7  C   -0.122090   0.021921   0.021921  -0.122090   0.094045  -0.010652
     8  C    0.115168  -0.006811   0.006606  -0.025447   0.026677   0.022836
     9  C    0.186460  -0.004634   0.001110  -0.016441   0.318943  -0.036342
    10  C    0.032157  -0.000284  -0.000284   0.032157  -0.032525   0.384336
    11  C   -0.016441   0.001110  -0.004634   0.186460  -0.049589  -0.036342
    12  C   -0.025447   0.006606  -0.006811   0.115168  -0.012883   0.022836
    13  H    0.716295  -0.015462   0.000156  -0.000627   0.000009  -0.000003
    14  H   -0.015462   0.533620  -0.000400   0.000156   0.000000  -0.000000
    15  H    0.000156  -0.000400   0.533620  -0.015462   0.000000  -0.000000
    16  H   -0.000627   0.000156  -0.015462   0.716295   0.000001  -0.000003
    17  H    0.000009   0.000000   0.000000   0.000001   0.510906  -0.007553
    18  H   -0.000003  -0.000000  -0.000000  -0.000003  -0.007553   0.522560
    19  H    0.000001   0.000000   0.000000   0.000009  -0.000208  -0.007553
    20  Cl   0.003064  -0.000287   0.004138  -0.287526   0.000347   0.002500
    21  Cl   0.001043  -0.014510  -0.014510   0.001043  -0.000000   0.000000
    22  Cl  -0.287526   0.004138  -0.000287   0.003064  -0.021504   0.002500
              19         20         21         22
     1  C    0.018446   0.910304  -0.159217   0.910304
     2  C    0.000958   0.313261   0.020700  -1.296805
     3  C    0.000192   0.253921   0.270553  -1.029912
     4  C   -0.000036  -0.077313  -1.104394  -0.077313
     5  C    0.000054  -1.029912   0.270553   0.253921
     6  C    0.005479  -1.296805   0.020700   0.313261
     7  C    0.094045   0.396079  -0.070998   0.396079
     8  C   -0.012883   0.345211  -0.024768  -1.136485
     9  C   -0.049589   0.237945  -0.002502  -0.157245
    10  C   -0.032525  -0.201457  -0.000654  -0.201457
    11  C    0.318943  -0.157245  -0.002502   0.237945
    12  C    0.026677  -1.136485  -0.024768   0.345211
    13  H    0.000001   0.003064   0.001043  -0.287526
    14  H    0.000000  -0.000287  -0.014510   0.004138
    15  H    0.000000   0.004138  -0.014510  -0.000287
    16  H    0.000009  -0.287526   0.001043   0.003064
    17  H   -0.000208   0.000347  -0.000000  -0.021504
    18  H   -0.007553   0.002500   0.000000   0.002500
    19  H    0.510906  -0.021504  -0.000000   0.000347
    20  Cl  -0.021504  18.126953  -0.002462  -0.033311
    21  Cl  -0.000000  -0.002462  17.423778  -0.002462
    22  Cl   0.000347  -0.033311  -0.002462  18.126953
 Mulliken charges:
               1
     1  C   -0.238227
     2  C   -0.895428
     3  C   -0.316955
     4  C    0.712682
     5  C   -0.316955
     6  C   -0.895428
     7  C   -0.178335
     8  C   -0.066654
     9  C    0.028446
    10  C   -0.469653
    11  C    0.028446
    12  C   -0.066654
    13  H    0.126128
    14  H    0.133867
    15  H    0.133867
    16  H    0.126128
    17  H    0.148240
    18  H    0.141701
    19  H    0.148240
    20  Cl   0.650583
    21  Cl   0.415377
    22  Cl   0.650583
 Sum of Mulliken charges =  -0.00000
 Mulliken charges with hydrogens summed into heavy atoms:
               1
     1  C   -0.238227
     2  C   -0.769300
     3  C   -0.183088
     4  C    0.712682
     5  C   -0.183088
     6  C   -0.769300
     7  C   -0.178335
     8  C   -0.066654
     9  C    0.176686
    10  C   -0.327952
    11  C    0.176686
    12  C   -0.066654
    20  Cl   0.650583
    21  Cl   0.415377
    22  Cl   0.650583
 Electronic spatial extent (au):  <R**2>=           4853.4175
 Charge=             -0.0000 electrons
 Dipole moment (field-independent basis, Debye):
    X=              3.9133    Y=             -0.0000    Z=             -0.0000  Tot=              3.9133
 Quadrupole moment (field-independent basis, Debye-Ang):
   XX=           -103.3673   YY=           -101.9120   ZZ=           -112.5552
   XY=              0.0000   XZ=             -0.0000   YZ=              0.0000
 Traceless Quadrupole moment (field-independent basis, Debye-Ang):
   XX=              2.5775   YY=              4.0328   ZZ=             -6.6104
   XY=              0.0000   XZ=             -0.0000   YZ=              0.0000
 Octapole moment (field-independent basis, Debye-Ang**2):
  XXX=            104.1773  YYY=             -0.0000  ZZZ=             -0.0000  XYY=            -12.6521
  XXY=              0.0000  XXZ=             -0.0001  XZZ=             -6.0559  YZZ=             -0.0000
  YYZ=             -0.0000  XYZ=             -0.0001
 Hexadecapole moment (field-independent basis, Debye-Ang**3):
 XXXX=          -4484.6373 YYYY=          -1687.3750 ZZZZ=           -132.7243 XXXY=              0.0000
 XXXZ=             -0.0006 YYYX=             -0.0000 YYYZ=              0.0001 ZZZX=              0.0000
 ZZZY=             -0.0000 XXYY=          -1016.8949 XXZZ=           -851.1799 YYZZ=           -325.5819
 XXYZ=             -0.0001 YYXZ=             -0.0001 ZZXY=             -0.0000
 N-N= 1.219491910905D+03 E-N=-6.791324214585D+03  KE= 1.837484675789D+03
 Calling FoFJK, ICntrl=      2127 FMM=F ISym2X=0 I1Cent= 0 IOpClX= 0 NMat=1 NMatS=1 NMatT=0.
 ***** Axes restored to original set *****
 -------------------------------------------------------------------
 Center     Atomic                   Forces (Hartrees/Bohr)
 Number     Number              X              Y              Z
 -------------------------------------------------------------------
      1        6          -0.015287309   -0.026118635    0.000131068
      2        6           0.004742026    0.055441268    0.008850267
      3        6          -0.016178474    0.004005597    0.006082478
      4        6          -0.005855035   -0.010003293    0.000050023
      5        6           0.011388166   -0.012190055   -0.006041230
      6        6           0.045977881    0.031214789   -0.009285403
      7        6           0.027771186    0.047447601   -0.000238166
      8        6          -0.020062466   -0.008123763    0.005084094
      9        6          -0.000942850    0.009152435    0.002029472
     10        6           0.011883633    0.020303434   -0.000101940
     11        6           0.008432762    0.003644179   -0.002093665
     12        6           0.002718924   -0.021508052   -0.004935278
     13        1           0.004842452    0.050943914    0.007972344
     14        1           0.008981306    0.000610903   -0.002844192
     15        1          -0.003852872    0.008151105    0.002800231
     16        1           0.042011234    0.029106889   -0.008374650
     17        1           0.004878819   -0.007104844   -0.002941680
     18        1          -0.004386736   -0.007494805    0.000037595
     19        1          -0.008570850    0.000796962    0.002973330
     20       17          -0.088056135   -0.060908224    0.017571961
     21       17          -0.000372986   -0.000637264    0.000003213
     22       17          -0.010062678   -0.106730141   -0.016729872
 -------------------------------------------------------------------
 Cartesian Forces:  Max     0.106730141 RMS     0.025256500

 GradGradGradGradGradGradGradGradGradGradGradGradGradGradGradGradGradGrad
 Berny optimization.
 FormGI is forming the generalized inverse of G from B-inverse, IUseBI=4.
 Internal  Forces:  Max     0.200346734 RMS     0.050641528
 Search for a local minimum.
 Step number   1 out of a maximum of  121
 All quantities printed in internal units (Hartrees-Bohrs-Radians)
 Mixed Optimization -- RFO/linear search
 Second derivative matrix not updated -- first step.
 ITU=  0
     Eigenvalues ---    0.00237   0.01506   0.01506   0.02070   0.02070
     Eigenvalues ---    0.02070   0.02070   0.02070   0.02070   0.02070
     Eigenvalues ---    0.02070   0.02070   0.02070   0.02070   0.02070
     Eigenvalues ---    0.02070   0.02070   0.02070   0.02070   0.16000
     Eigenvalues ---    0.16000   0.16000   0.16000   0.16000   0.16000
     Eigenvalues ---    0.16000   0.22000   0.22085   0.22981   0.23478
     Eigenvalues ---    0.24000   0.24913   0.25000   0.25000   0.25000
     Eigenvalues ---    0.25000   0.25000   0.28519   0.29539   0.29539
     Eigenvalues ---    0.29539   0.37230   0.37230   0.37230   0.37230
     Eigenvalues ---    0.37230   0.37230   0.37230   0.41268   0.41535
     Eigenvalues ---    0.41554   0.41640   0.45389   0.45389   0.45389
     Eigenvalues ---    0.45389   0.45389   0.45389   0.45389   0.45389
 RFO step:  Lambda=-4.10266300D-01 EMin= 2.36824176D-03
 Linear search not attempted -- first point.
 Maximum step size (   0.300) exceeded in Quadratic search.
    -- Step size scaled by   0.388
 Iteration  1 RMS(Cart)=  0.09778828 RMS(Int)=  0.00388898
 Iteration  2 RMS(Cart)=  0.00447741 RMS(Int)=  0.00016136
 Iteration  3 RMS(Cart)=  0.00000846 RMS(Int)=  0.00016132
 Iteration  4 RMS(Cart)=  0.00000000 RMS(Int)=  0.00016132
 Variable       Old X    -DE/DX   Delta X   Delta X   Delta X     New X
                                 (Linear)    (Quad)   (Total)
    R1        2.64826   0.03458   0.00000   0.01615   0.01630   2.66456
    R2        2.64826   0.03458   0.00000   0.01615   0.01630   2.66456
    R3        2.91018   0.15124   0.00000   0.08447   0.08447   2.99464
    R4        2.64826  -0.00583   0.00000  -0.00262  -0.00262   2.64564
    R5        2.02201  -0.04315   0.00000  -0.02142  -0.02142   2.00059
    R6        2.64826  -0.04231   0.00000  -0.01962  -0.01978   2.62849
    R7        2.02201   0.00943   0.00000   0.00468   0.00468   2.02669
    R8        2.64826  -0.04231   0.00000  -0.01962  -0.01978   2.62849
    R9        3.32592  -0.00074   0.00000  -0.00041  -0.00041   3.32551
   R10        2.64826  -0.00583   0.00000  -0.00262  -0.00262   2.64564
   R11        2.02201   0.00943   0.00000   0.00468   0.00468   2.02669
   R12        2.02201  -0.04315   0.00000  -0.02142  -0.02142   2.00059
   R13        2.64826   0.14116   0.00000   0.06546   0.06577   2.71403
   R14        2.64826   0.14116   0.00000   0.06546   0.06577   2.71403
   R15        2.64826  -0.01118   0.00000  -0.00502  -0.00503   2.64323
   R16        3.32592  -0.00667   0.00000  -0.00367  -0.00367   3.32225
   R17        2.64826  -0.06147   0.00000  -0.02964  -0.02996   2.61830
   R18        2.02201   0.00905   0.00000   0.00449   0.00449   2.02650
   R19        2.64826  -0.06147   0.00000  -0.02964  -0.02996   2.61830
   R20        2.02201   0.00868   0.00000   0.00431   0.00431   2.02632
   R21        2.64826  -0.01118   0.00000  -0.00502  -0.00503   2.64323
   R22        2.02201   0.00905   0.00000   0.00449   0.00449   2.02650
   R23        3.32592  -0.00667   0.00000  -0.00367  -0.00367   3.32225
    A1        2.09440  -0.11372   0.00000  -0.06587  -0.06555   2.02884
    A2        2.09440   0.05686   0.00000   0.03294   0.03278   2.12717
    A3        2.09440   0.05686   0.00000   0.03294   0.03278   2.12717
    A4        2.09440   0.05535   0.00000   0.03433   0.03448   2.12888
    A5        2.09440   0.00128   0.00000   0.00255   0.00248   2.09687
    A6        2.09440  -0.05663   0.00000  -0.03688  -0.03696   2.05743
    A7        2.09440   0.01110   0.00000   0.00536   0.00520   2.09960
    A8        2.09440  -0.00513   0.00000  -0.00239  -0.00231   2.09208
    A9        2.09440  -0.00597   0.00000  -0.00297  -0.00289   2.09151
   A10        2.09440  -0.01918   0.00000  -0.01351  -0.01382   2.08057
   A11        2.09440   0.00959   0.00000   0.00675   0.00691   2.10131
   A12        2.09440   0.00959   0.00000   0.00675   0.00691   2.10131
   A13        2.09440   0.01110   0.00000   0.00536   0.00520   2.09960
   A14        2.09440  -0.00597   0.00000  -0.00297  -0.00289   2.09151
   A15        2.09440  -0.00513   0.00000  -0.00239  -0.00231   2.09208
   A16        2.09440   0.05535   0.00000   0.03433   0.03448   2.12888
   A17        2.09440   0.00128   0.00000   0.00255   0.00248   2.09687
   A18        2.09440  -0.05663   0.00000  -0.03688  -0.03696   2.05743
   A19        2.09440   0.07293   0.00000   0.04032   0.03999   2.13438
   A20        2.09440   0.07293   0.00000   0.04032   0.03999   2.13438
   A21        2.09440  -0.14587   0.00000  -0.08065  -0.07997   2.01442
   A22        2.09440   0.04051   0.00000   0.02630   0.02662   2.12102
   A23        2.09440   0.15984   0.00000   0.09279   0.09263   2.18702
   A24        2.09440  -0.20035   0.00000  -0.11909  -0.11925   1.97515
   A25        2.09440   0.03768   0.00000   0.02019   0.01986   2.11425
   A26        2.09440  -0.01986   0.00000  -0.01079  -0.01062   2.08377
   A27        2.09440  -0.01783   0.00000  -0.00940  -0.00924   2.08516
   A28        2.09440  -0.01052   0.00000  -0.01233  -0.01299   2.08141
   A29        2.09440   0.00526   0.00000   0.00617   0.00649   2.10089
   A30        2.09440   0.00526   0.00000   0.00617   0.00649   2.10089
   A31        2.09440   0.03768   0.00000   0.02019   0.01986   2.11425
   A32        2.09440  -0.01783   0.00000  -0.00940  -0.00924   2.08516
   A33        2.09440  -0.01986   0.00000  -0.01079  -0.01062   2.08377
   A34        2.09440   0.04051   0.00000   0.02630   0.02662   2.12102
   A35        2.09440   0.15984   0.00000   0.09279   0.09263   2.18702
   A36        2.09440  -0.20035   0.00000  -0.11909  -0.11925   1.97515
    D1        0.00000   0.00000   0.00000   0.00000   0.00000   0.00000
    D2        3.14159  -0.00000   0.00000   0.00000   0.00000   3.14159
    D3       -3.14159  -0.00000   0.00000  -0.00000  -0.00000  -3.14159
    D4       -0.00000  -0.00000   0.00000  -0.00000  -0.00000  -0.00000
    D5       -0.00000  -0.00000   0.00000  -0.00000  -0.00000  -0.00000
    D6        3.14159  -0.00000   0.00000  -0.00000  -0.00000   3.14159
    D7        3.14159   0.00000   0.00000   0.00000   0.00000   3.14159
    D8        0.00000  -0.00000   0.00000  -0.00000  -0.00000  -0.00000
    D9       -0.00000  -0.00000   0.00000  -0.00000  -0.00000  -0.00000
   D10        3.14159  -0.00000   0.00000  -0.00000  -0.00000   3.14159
   D11        3.14159  -0.00000   0.00000  -0.00000  -0.00000   3.14159
   D12       -0.00000  -0.00000   0.00000  -0.00000  -0.00000  -0.00000
   D13        0.00000  -0.00000   0.00000  -0.00000  -0.00000   0.00000
   D14        3.14159  -0.00000   0.00000  -0.00000  -0.00000   3.14159
   D15       -3.14159  -0.00000   0.00000  -0.00000  -0.00000  -3.14159
   D16        0.00000  -0.00000   0.00000  -0.00000  -0.00000   0.00000
   D17       -0.00000  -0.00000   0.00000   0.00000   0.00000  -0.00000
   D18        3.14159   0.00000   0.00000   0.00000   0.00000   3.14159
   D19        3.14159  -0.00000   0.00000  -0.00000  -0.00000   3.14159
   D20        0.00000  -0.00000   0.00000  -0.00000  -0.00000   0.00000
   D21        0.00000   0.00000   0.00000   0.00000   0.00000   0.00000
   D22       -3.14159   0.00000   0.00000   0.00000   0.00000  -3.14159
   D23       -3.14159  -0.00000   0.00000  -0.00000  -0.00000  -3.14159
   D24        0.00000   0.00000   0.00000   0.00000   0.00000   0.00000
   D25       -0.00000   0.00000   0.00000   0.00000   0.00000  -0.00000
   D26        3.14159   0.00000   0.00000   0.00000   0.00000   3.14159
   D27        3.14159   0.00000   0.00000  -0.00000  -0.00000   3.14159
   D28       -0.00000   0.00000   0.00000   0.00000   0.00000  -0.00000
   D29        3.14159   0.00000   0.00000   0.00000   0.00000   3.14159
   D30        0.00000   0.00000   0.00000   0.00000   0.00000   0.00000
   D31        0.00000   0.00000   0.00000   0.00000   0.00000   0.00000
   D32       -3.14159  -0.00000   0.00000  -0.00000  -0.00000  -3.14159
   D33       -3.14159  -0.00000   0.00000  -0.00000  -0.00000  -3.14159
   D34        0.00000  -0.00000   0.00000  -0.00000  -0.00000  -0.00000
   D35       -0.00000   0.00000   0.00000   0.00000   0.00000  -0.00000
   D36        3.14159  -0.00000   0.00000  -0.00000  -0.00000   3.14159
   D37       -0.00000  -0.00000   0.00000  -0.00000  -0.00000  -0.00000
   D38        3.14159  -0.00000   0.00000  -0.00000  -0.00000   3.14159
   D39        3.14159   0.00000   0.00000   0.00000   0.00000   3.14159
   D40       -0.00000   0.00000   0.00000   0.00000   0.00000  -0.00000
   D41       -0.00000   0.00000   0.00000   0.00000   0.00000  -0.00000
   D42       -3.14159  -0.00000   0.00000  -0.00000  -0.00000  -3.14159
   D43        3.14159   0.00000   0.00000   0.00000   0.00000   3.14159
   D44        0.00000   0.00000   0.00000   0.00000   0.00000   0.00000
   D45        0.00000   0.00000   0.00000   0.00000   0.00000   0.00000
   D46       -3.14159  -0.00000   0.00000  -0.00000  -0.00000  -3.14159
   D47        3.14159   0.00000   0.00000   0.00000   0.00000   3.14159
   D48        0.00000   0.00000   0.00000   0.00000   0.00000   0.00000
   D49        0.00000  -0.00000   0.00000  -0.00000  -0.00000   0.00000
   D50       -3.14159   0.00000   0.00000   0.00000   0.00000  -3.14159
   D51        3.14159   0.00000   0.00000   0.00000   0.00000   3.14159
   D52       -0.00000   0.00000   0.00000   0.00000   0.00000  -0.00000
         Item               Value     Threshold  Converged?
 Maximum Force            0.200347     0.000450     NO 
 RMS     Force            0.050642     0.000300     NO 
 Maximum Displacement     0.536214     0.001800     NO 
 RMS     Displacement     0.099249     0.001200     NO 
 Predicted change in Energy=-1.468403D-01
 GradGradGradGradGradGradGradGradGradGradGradGradGradGradGradGradGradGrad

                          Input orientation:                          
 ---------------------------------------------------------------------
 Center     Atomic      Atomic             Coordinates (Angstroms)
 Number     Number       Type             X           Y           Z
 ---------------------------------------------------------------------
      1          6           0       -0.400268   -0.071617   -0.003060
      2          6           0        0.941182    0.003914   -0.430821
      3          6           0        1.650302    1.211034   -0.437736
      4          6           0        1.038572    2.386670   -0.015402
      5          6           0       -0.284159    2.347548    0.413028
      6          6           0       -0.989423    1.138163    0.418246
      7          6           0       -1.200751   -1.439260    0.003808
      8          6           0       -0.609526   -2.676466   -0.423335
      9          6           0       -1.331080   -3.874659   -0.410645
     10          6           0       -2.648669   -3.913063    0.016232
     11          6           0       -3.258516   -2.742272    0.437037
     12          6           0       -2.567100   -1.526372    0.437602
     13          1           0        1.444013   -0.867566   -0.760152
     14          1           0        2.669803    1.229659   -0.770117
     15          1           0       -0.765696    3.248048    0.740793
     16          1           0       -1.994043    1.152326    0.751882
     17          1           0       -0.855685   -4.778782   -0.737071
     18          1           0       -3.190313   -4.838474    0.020881
     19          1           0       -4.278175   -2.768037    0.768135
     20         17           0       -3.539035   -0.178291    1.010999
     21         17           0        1.927498    3.905418   -0.023027
     22         17           0        1.039284   -2.868097   -1.002533
 ---------------------------------------------------------------------
                    Distance matrix (angstroms):
                    1          2          3          4          5
     1  C    0.000000
     2  C    1.410025   0.000000
     3  C    2.457432   1.400014   0.000000
     4  C    2.848436   2.420658   1.390935   0.000000
     5  C    2.457432   2.775998   2.399501   1.390935   0.000000
     6  C    1.410025   2.394717   2.775998   2.420658   1.400014
     7  C    1.584697   2.619070   3.917591   4.433133   3.917591
     8  C    2.646820   3.096641   4.496630   5.340223   5.103537
     9  C    3.936453   4.495210   5.895223   6.706393   6.363203
    10  C    4.451110   5.331941   6.703999   7.299546   6.703999
    11  C    3.936453   5.092365   6.363203   6.706393   5.895223
    12  C    2.646820   3.924790   5.103537   5.340223   4.496630
    13  H    2.146647   1.058666   2.113547   3.362898   3.834043
    14  H    3.421554   2.146091   1.072477   2.137565   3.372744
    15  H    3.421554   3.848443   3.372744   2.137565   1.072477
    16  H    2.146647   3.366479   3.834043   3.362898   2.113547
    17  H    4.785768   5.118272   6.499806   7.446658   7.241130
    18  H    5.523391   6.381380   7.761342   8.371827   7.761342
    19  H    4.785768   6.030165   7.241130   7.446658   6.499805
    20  Cl   3.300236   4.710030   5.564016   5.346682   4.163130
    21  Cl   4.608221   4.044855   2.740169   1.759785   2.740169
    22  Cl   3.300236   2.930005   4.163130   5.346682   5.564016
                    6          7          8          9         10
     6  C    0.000000
     7  C    2.619070   0.000000
     8  C    3.924790   1.436203   0.000000
     9  C    5.092365   2.473849   1.398738   0.000000
    10  C    5.331941   2.866413   2.424974   1.385547   0.000000
    11  C    4.495210   2.473849   2.785987   2.390790   1.385547
    12  C    3.096641   1.436203   2.428174   2.785987   2.424974
    13  H    3.366479   2.811626   2.757279   4.106813   5.160220
    14  H    3.848443   4.764795   5.111953   6.495410   7.439898
    15  H    2.146091   4.764795   6.039822   7.237294   7.439898
    16  H    1.058666   2.811626   4.237649   5.202073   5.160220
    17  H    6.030165   3.438078   2.139803   1.072377   2.128786
    18  H    6.381380   3.938694   3.395890   2.138200   1.072281
    19  H    5.118272   3.438078   3.858364   3.361473   2.128786
    20  Cl   2.930005   2.841136   4.108555   4.534234   3.966212
    21  Cl   4.044855   6.192918   7.065262   8.443825   9.059331
    22  Cl   4.710030   2.841136   1.758057   2.642371   3.966212
                   11         12         13         14         15
    11  C    0.000000
    12  C    1.398738   0.000000
    13  H    5.202073   4.237649   0.000000
    14  H    7.237294   6.039822   2.429200   0.000000
    15  H    6.495410   5.111953   4.906518   4.261385   0.000000
    16  H    4.106813   2.757279   4.264556   4.906518   2.429200
    17  H    3.361473   3.858364   4.537264   6.966457   8.162241
    18  H    2.138200   3.395890   6.152650   8.472832   8.472832
    19  H    1.072377   2.139803   6.220200   8.162241   6.966457
    20  Cl   2.642371   1.758057   5.333183   6.610928   4.416358
    21  Cl   8.443825   7.065262   4.853708   2.875561   2.875561
    22  Cl   4.534234   4.108555   2.055403   4.416358   6.610928
                   16         17         18         19         20
    16  H    0.000000
    17  H    6.220200   0.000000
    18  H    6.152650   2.455309   0.000000
    19  H    4.537264   4.245254   2.455309   0.000000
    20  Cl   2.055403   5.605412   4.776950   2.704089   0.000000
    21  Cl   4.853708   9.147202  10.131612   9.147202   6.901367
    22  Cl   5.333183   2.704089   4.776950   5.605412   5.678942
                   21         22
    21  Cl   0.000000
    22  Cl   6.901367   0.000000
 Stoichiometry    C12H7Cl3
 Framework group  C1[X(C12H7Cl3)]
 Deg. of freedom    60
 Full point group                 C1      NOp   1
 Largest Abelian subgroup         C1      NOp   1
 Largest concise Abelian subgroup C1      NOp   1
                         Standard orientation:                         
 ---------------------------------------------------------------------
 Center     Atomic      Atomic             Coordinates (Angstroms)
 Number     Number       Type             X           Y           Z
 ---------------------------------------------------------------------
      1          6           0       -0.344468    0.000000    0.000002
      2          6           0       -1.089118   -1.197359   -0.000000
      3          6           0       -2.489130   -1.199750   -0.000001
      4          6           0       -3.192905    0.000000   -0.000000
      5          6           0       -2.489130    1.199750    0.000004
      6          6           0       -1.089118    1.197358    0.000005
      7          6           0        1.240229    0.000000    0.000002
      8          6           0        2.007478   -1.214087    0.000002
      9          6           0        3.406091   -1.195395    0.000001
     10          6           0        4.106642    0.000000   -0.000000
     11          6           0        3.406091    1.195395   -0.000001
     12          6           0        2.007478    1.214087    0.000000
     13          1           0       -0.592429   -2.132278   -0.000003
     14          1           0       -3.021628   -2.130692   -0.000004
     15          1           0       -3.021628    2.130692    0.000008
     16          1           0       -0.592429    2.132278    0.000008
     17          1           0        3.944825   -2.122627    0.000001
     18          1           0        5.178923    0.000000   -0.000003
     19          1           0        3.944825    2.122627   -0.000004
     20         17           0        1.337483    2.839471   -0.000003
     21         17           0       -4.952689    0.000000   -0.000002
     22         17           0        1.337483   -2.839471   -0.000001
 ---------------------------------------------------------------------
 Rotational constants (GHZ):           0.6923938           0.2582370           0.1880874
 Standard basis: 6-311+G(d,p) (5D, 7F)
 There are   411 symmetry adapted cartesian basis functions of A   symmetry.
 There are   396 symmetry adapted basis functions of A   symmetry.
   396 basis functions,   647 primitive gaussians,   411 cartesian basis functions
    65 alpha electrons       65 beta electrons
       nuclear repulsion energy      1193.0515709966 Hartrees.
 NAtoms=   22 NActive=   22 NUniq=   22 SFac= 1.00D+00 NAtFMM=   60 NAOKFM=F Big=F
 Integral buffers will be    131072 words long.
 Raffenetti 2 integral format.
 Two-electron integral symmetry is turned on.
 One-electron integrals computed using PRISM.
 NBasis=   396 RedAO= T EigKep=  1.65D-06  NBF=   396
 NBsUse=   391 1.00D-06 EigRej=  8.89D-07 NBFU=   391
 Initial guess from the checkpoint file:  "/scratch/pkc/Gau-20622.chk"
 B after Tr=    -0.000000    0.000000   -0.000000
         Rot=    1.000000   -0.000000    0.000000   -0.000000 Ang=  -0.00 deg.
 ExpMin= 4.38D-02 ExpMax= 1.06D+05 ExpMxC= 3.62D+03 IAcc=3 IRadAn=         5 AccDes= 0.00D+00
 Harris functional with IExCor=  402 and IRadAn=       5 diagonalized for initial guess.
 HarFok:  IExCor=  402 AccDes= 0.00D+00 IRadAn=         5 IDoV= 1 UseB2=F ITyADJ=14
 ICtDFT=  3500011 ScaDFX=  1.000000  1.000000  1.000000  1.000000
 FoFCou: FMM=F IPFlag=           0 FMFlag=      100000 FMFlg1=           0
         NFxFlg=           0 DoJE=T BraDBF=F KetDBF=T FulRan=T
         wScrn=  0.000000 ICntrl=       500 IOpCl=  0 I1Cent=   200000004 NGrid=           0
         NMat0=    1 NMatS0=      1 NMatT0=    0 NMatD0=    1 NMtDS0=    0 NMtDT0=    0
 Petite list used in FoFCou.
 Requested convergence on RMS density matrix=1.00D-08 within  32 cycles.
 Requested convergence on MAX density matrix=1.00D-06.
 Requested convergence on             energy=1.00D-06.
 No special actions if energy rises.
 SCF Done:  E(RB3LYP) =  -1842.24454561     A.U. after   13 cycles
            NFock= 13  Conv=0.92D-08     -V/T= 2.0029
 QCSCF skips out because SCF is already converged.
 Calling FoFJK, ICntrl=      2127 FMM=F ISym2X=0 I1Cent= 0 IOpClX= 0 NMat=1 NMatS=1 NMatT=0.
 ***** Axes restored to original set *****
 -------------------------------------------------------------------
 Center     Atomic                   Forces (Hartrees/Bohr)
 Number     Number              X              Y              Z
 -------------------------------------------------------------------
      1        6          -0.013687711   -0.023385701    0.000117345
      2        6          -0.005129697    0.019755391    0.005400400
      3        6          -0.008867677   -0.002429783    0.002465273
      4        6          -0.003296036   -0.005631205    0.000028072
      5        6           0.002213085   -0.008939824   -0.002408042
      6        6           0.019712845    0.005160147   -0.005525391
      7        6           0.017695676    0.030233344   -0.000151685
      8        6          -0.020338681    0.003827836    0.007419705
      9        6           0.000503071    0.006421300    0.001040150
     10        6           0.005985681    0.010226645   -0.000051328
     11        6           0.005347792    0.003574985   -0.001090307
     12        6           0.013264439   -0.015914325   -0.007358996
     13        1           0.006682138    0.001815561   -0.001860529
     14        1           0.006945766   -0.000722241   -0.002423949
     15        1          -0.004020300    0.005720427    0.002398893
     16        1          -0.001681049    0.006729016    0.001817484
     17        1           0.004850326   -0.004831147   -0.002505274
     18        1          -0.003719203   -0.006354308    0.000031866
     19        1          -0.006576395    0.001882158    0.002520048
     20       17          -0.013463421   -0.008887598    0.002766516
     21       17          -0.001252308   -0.002139603    0.000010755
     22       17          -0.001168341   -0.016111073   -0.002641006
 -------------------------------------------------------------------
 Cartesian Forces:  Max     0.030233344 RMS     0.008862268

 GradGradGradGradGradGradGradGradGradGradGradGradGradGradGradGradGradGrad
 Berny optimization.
 Using GEDIIS/GDIIS optimizer.
 FormGI is forming the generalized inverse of G from B-inverse, IUseBI=4.
 Internal  Forces:  Max     0.033461283 RMS     0.007620550
 Search for a local minimum.
 Step number   2 out of a maximum of  121
 All quantities printed in internal units (Hartrees-Bohrs-Radians)
 Mixed Optimization -- RFO/linear search
 Update second derivatives using D2CorX and points    1    2
 DE= -7.91D-02 DEPred=-1.47D-01 R= 5.39D-01
 TightC=F SS=  1.41D+00  RLast= 3.00D-01 DXNew= 5.0454D-01 8.9996D-01
 Trust test= 5.39D-01 RLast= 3.00D-01 DXMaxT set to 5.05D-01
 ITU=  1  0
 Use linear search instead of GDIIS.
     Eigenvalues ---    0.00237   0.01460   0.01467   0.02070   0.02070
     Eigenvalues ---    0.02070   0.02070   0.02070   0.02070   0.02070
     Eigenvalues ---    0.02070   0.02070   0.02070   0.02070   0.02070
     Eigenvalues ---    0.02070   0.02070   0.02070   0.02070   0.15998
     Eigenvalues ---    0.16000   0.16000   0.16000   0.16000   0.16000
     Eigenvalues ---    0.16088   0.22000   0.22134   0.23031   0.23454
     Eigenvalues ---    0.24107   0.24891   0.25000   0.25000   0.25000
     Eigenvalues ---    0.25000   0.27831   0.29535   0.29539   0.29539
     Eigenvalues ---    0.36187   0.37183   0.37230   0.37230   0.37230
     Eigenvalues ---    0.37230   0.37230   0.38216   0.41103   0.41426
     Eigenvalues ---    0.41767   0.45063   0.45341   0.45389   0.45389
     Eigenvalues ---    0.45389   0.45389   0.45389   0.45389   1.58221
 RFO step:  Lambda=-1.08769358D-02 EMin= 2.36824176D-03
 Quartic linear search produced a step of  0.34396.
 Iteration  1 RMS(Cart)=  0.03524456 RMS(Int)=  0.00116444
 Iteration  2 RMS(Cart)=  0.00134139 RMS(Int)=  0.00011670
 Iteration  3 RMS(Cart)=  0.00000051 RMS(Int)=  0.00011670
 Variable       Old X    -DE/DX   Delta X   Delta X   Delta X     New X
                                 (Linear)    (Quad)   (Total)
    R1        2.66456   0.00325   0.00561  -0.00613  -0.00043   2.66413
    R2        2.66456   0.00325   0.00561  -0.00613  -0.00043   2.66413
    R3        2.99464  -0.00471   0.02905  -0.11182  -0.08277   2.91188
    R4        2.64564  -0.00818  -0.00090  -0.02103  -0.02193   2.62371
    R5        2.00059   0.00226  -0.00737   0.02988   0.02251   2.02310
    R6        2.62849  -0.00845  -0.00680  -0.00543  -0.01233   2.61616
    R7        2.02669   0.00734   0.00161   0.02094   0.02255   2.04924
    R8        2.62849  -0.00845  -0.00680  -0.00543  -0.01233   2.61616
    R9        3.32551  -0.00248  -0.00014  -0.01044  -0.01058   3.31493
   R10        2.64564  -0.00818  -0.00090  -0.02103  -0.02193   2.62371
   R11        2.02669   0.00734   0.00161   0.02094   0.02255   2.04924
   R12        2.00059   0.00226  -0.00737   0.02988   0.02251   2.02310
   R13        2.71403   0.00970   0.02262  -0.03593  -0.01309   2.70094
   R14        2.71403   0.00970   0.02262  -0.03593  -0.01309   2.70094
   R15        2.64323  -0.00653  -0.00173  -0.01382  -0.01555   2.62768
   R16        3.32225   0.00153  -0.00126   0.01062   0.00936   3.33160
   R17        2.61830  -0.01065  -0.01030  -0.00253  -0.01307   2.60523
   R18        2.02650   0.00699   0.00155   0.01989   0.02143   2.04793
   R19        2.61830  -0.01065  -0.01030  -0.00253  -0.01307   2.60523
   R20        2.02632   0.00736   0.00148   0.02139   0.02288   2.04919
   R21        2.64323  -0.00653  -0.00173  -0.01382  -0.01555   2.62768
   R22        2.02650   0.00699   0.00155   0.01989   0.02143   2.04793
   R23        3.32225   0.00153  -0.00126   0.01062   0.00936   3.33160
    A1        2.02884  -0.01599  -0.02255  -0.00927  -0.03163   1.99722
    A2        2.12717   0.00799   0.01127   0.00464   0.01581   2.14298
    A3        2.12717   0.00799   0.01127   0.00464   0.01581   2.14298
    A4        2.12888   0.00837   0.01186   0.00974   0.02169   2.15057
    A5        2.09687   0.00262   0.00085   0.02467   0.02547   2.12235
    A6        2.05743  -0.01099  -0.01271  -0.03441  -0.04717   2.01027
    A7        2.09960  -0.00021   0.00179  -0.00993  -0.00823   2.09136
    A8        2.09208  -0.00077  -0.00080  -0.00226  -0.00301   2.08907
    A9        2.09151   0.00098  -0.00099   0.01219   0.01124   2.10275
   A10        2.08057  -0.00033  -0.00475   0.00966   0.00472   2.08529
   A11        2.10131   0.00017   0.00238  -0.00483  -0.00236   2.09895
   A12        2.10131   0.00017   0.00238  -0.00483  -0.00236   2.09895
   A13        2.09960  -0.00021   0.00179  -0.00993  -0.00823   2.09136
   A14        2.09151   0.00098  -0.00099   0.01219   0.01124   2.10275
   A15        2.09208  -0.00077  -0.00080  -0.00226  -0.00301   2.08907
   A16        2.12888   0.00837   0.01186   0.00974   0.02169   2.15057
   A17        2.09687   0.00262   0.00085   0.02467   0.02547   2.12235
   A18        2.05743  -0.01099  -0.01271  -0.03441  -0.04717   2.01027
   A19        2.13438   0.01331   0.01375   0.02189   0.03539   2.16977
   A20        2.13438   0.01331   0.01375   0.02189   0.03539   2.16977
   A21        2.01442  -0.02661  -0.02751  -0.04378  -0.07078   1.94364
   A22        2.12102   0.01278   0.00916   0.03965   0.04904   2.17006
   A23        2.18702   0.02068   0.03186   0.00332   0.03506   2.22208
   A24        1.97515  -0.03346  -0.04102  -0.04297  -0.08410   1.89104
   A25        2.11425   0.00294   0.00683  -0.00808  -0.00150   2.11276
   A26        2.08377  -0.00358  -0.00365  -0.01171  -0.01524   2.06853
   A27        2.08516   0.00064  -0.00318   0.01979   0.01674   2.10190
   A28        2.08141  -0.00483  -0.00447  -0.01936  -0.02432   2.05709
   A29        2.10089   0.00241   0.00223   0.00968   0.01216   2.11305
   A30        2.10089   0.00241   0.00223   0.00968   0.01216   2.11305
   A31        2.11425   0.00294   0.00683  -0.00808  -0.00150   2.11276
   A32        2.08516   0.00064  -0.00318   0.01979   0.01674   2.10190
   A33        2.08377  -0.00358  -0.00365  -0.01171  -0.01524   2.06853
   A34        2.12102   0.01278   0.00916   0.03965   0.04904   2.17006
   A35        2.18702   0.02068   0.03186   0.00332   0.03506   2.22208
   A36        1.97515  -0.03346  -0.04102  -0.04297  -0.08410   1.89104
    D1        0.00000  -0.00000   0.00000  -0.00000  -0.00000   0.00000
    D2        3.14159   0.00000   0.00000   0.00000   0.00000  -3.14159
    D3       -3.14159  -0.00000  -0.00000  -0.00000  -0.00000   3.14159
    D4       -0.00000  -0.00000  -0.00000   0.00000   0.00000  -0.00000
    D5       -0.00000   0.00000  -0.00000   0.00000   0.00000  -0.00000
    D6        3.14159  -0.00000  -0.00000  -0.00000  -0.00000   3.14159
    D7        3.14159   0.00000   0.00000   0.00000   0.00000  -3.14159
    D8       -0.00000  -0.00000  -0.00000  -0.00000  -0.00000  -0.00000
    D9       -0.00000  -0.00000  -0.00000  -0.00001  -0.00002  -0.00002
   D10        3.14159  -0.00000  -0.00000  -0.00001  -0.00001   3.14158
   D11        3.14159  -0.00000  -0.00000  -0.00002  -0.00002   3.14157
   D12       -0.00000  -0.00000  -0.00000  -0.00001  -0.00001  -0.00002
   D13        0.00000  -0.00000  -0.00000  -0.00000  -0.00000  -0.00000
   D14        3.14159   0.00000  -0.00000   0.00000   0.00000   3.14159
   D15       -3.14159  -0.00000  -0.00000  -0.00000  -0.00000  -3.14159
   D16        0.00000  -0.00000  -0.00000  -0.00000  -0.00000   0.00000
   D17       -0.00000   0.00000   0.00000   0.00000   0.00000  -0.00000
   D18        3.14159   0.00000   0.00000   0.00000   0.00000   3.14159
   D19        3.14159   0.00000  -0.00000   0.00000   0.00000   3.14159
   D20        0.00000  -0.00000  -0.00000  -0.00000  -0.00000  -0.00000
   D21        0.00000  -0.00000   0.00000  -0.00000  -0.00000   0.00000
   D22       -3.14159  -0.00000   0.00000  -0.00000  -0.00000  -3.14159
   D23       -3.14159  -0.00000  -0.00000   0.00000   0.00000  -3.14159
   D24        0.00000   0.00000   0.00000   0.00000   0.00000   0.00000
   D25       -0.00000   0.00000   0.00000   0.00000   0.00000   0.00000
   D26        3.14159   0.00000   0.00000   0.00000   0.00000  -3.14159
   D27        3.14159   0.00000  -0.00000   0.00000   0.00000   3.14159
   D28       -0.00000   0.00000   0.00000   0.00000   0.00000   0.00000
   D29        3.14159   0.00000   0.00000   0.00000   0.00000  -3.14159
   D30        0.00000  -0.00000   0.00000  -0.00000  -0.00000   0.00000
   D31        0.00000   0.00000   0.00000   0.00000   0.00000   0.00000
   D32       -3.14159  -0.00000  -0.00000  -0.00000  -0.00000   3.14159
   D33       -3.14159  -0.00000  -0.00000  -0.00000  -0.00000   3.14159
   D34       -0.00000  -0.00000  -0.00000  -0.00000  -0.00000  -0.00000
   D35       -0.00000   0.00000   0.00000   0.00000   0.00000  -0.00000
   D36        3.14159  -0.00000  -0.00000   0.00000   0.00000   3.14159
   D37       -0.00000  -0.00000  -0.00000  -0.00000  -0.00000  -0.00000
   D38        3.14159  -0.00000  -0.00000  -0.00000  -0.00000   3.14159
   D39        3.14159   0.00000   0.00000   0.00000   0.00000  -3.14159
   D40       -0.00000   0.00000   0.00000   0.00000   0.00000   0.00000
   D41       -0.00000   0.00000   0.00000   0.00000   0.00000   0.00000
   D42       -3.14159  -0.00000  -0.00000  -0.00000  -0.00000  -3.14159
   D43        3.14159   0.00000   0.00000   0.00000   0.00000  -3.14159
   D44        0.00000  -0.00000   0.00000  -0.00000  -0.00000   0.00000
   D45        0.00000   0.00000   0.00000   0.00000   0.00000   0.00000
   D46       -3.14159  -0.00000  -0.00000  -0.00000  -0.00000  -3.14159
   D47        3.14159   0.00000   0.00000   0.00000   0.00000  -3.14159
   D48        0.00000  -0.00000   0.00000  -0.00000  -0.00000   0.00000
   D49        0.00000  -0.00000  -0.00000  -0.00000  -0.00000  -0.00000
   D50       -3.14159  -0.00000   0.00000  -0.00000  -0.00000  -3.14159
   D51        3.14159   0.00000   0.00000   0.00000   0.00000   3.14159
   D52       -0.00000   0.00000   0.00000   0.00000   0.00000   0.00000
         Item               Value     Threshold  Converged?
 Maximum Force            0.033461     0.000450     NO 
 RMS     Force            0.007621     0.000300     NO 
 Maximum Displacement     0.197404     0.001800     NO 
 RMS     Displacement     0.035586     0.001200     NO 
 Predicted change in Energy=-2.527496D-03
 GradGradGradGradGradGradGradGradGradGradGradGradGradGradGradGradGradGrad

                          Input orientation:                          
 ---------------------------------------------------------------------
 Center     Atomic      Atomic             Coordinates (Angstroms)
 Number     Number       Type             X           Y           Z
 ---------------------------------------------------------------------
      1          6           0       -0.402269   -0.075039   -0.003040
      2          6           0        0.938868    0.022383   -0.426578
      3          6           0        1.648668    1.215599   -0.436330
      4          6           0        1.037051    2.384073   -0.015392
      5          6           0       -0.279385    2.348348    0.411595
      6          6           0       -0.972204    1.145156    0.413879
      7          6           0       -1.180627   -1.404882    0.003639
      8          6           0       -0.635998   -2.659449   -0.411421
      9          6           0       -1.338066   -3.859692   -0.405540
     10          6           0       -2.649450   -3.914395    0.016237
     11          6           0       -3.242068   -2.741072    0.431851
     12          6           0       -2.539350   -1.541211    0.425683
     13          1           0        1.483354   -0.834294   -0.766843
     14          1           0        2.679105    1.224943   -0.774050
     15          1           0       -0.774346    3.253879    0.744719
     16          1           0       -1.984268    1.202967    0.758156
     17          1           0       -0.831490   -4.757080   -0.740981
     18          1           0       -3.197210   -4.850253    0.020935
     19          1           0       -4.271084   -2.736284    0.771773
     20         17           0       -3.607686   -0.269305    1.016544
     21         17           0        1.923147    3.897989   -0.022995
     22         17           0        0.993522   -2.972559   -1.007095
[...]
     18          1           0        5.146994    0.000213    0.000308
     19          1           0        3.898102    2.151661    0.000113
     20         17           0        1.142251    2.736683   -0.000352
     21         17           0       -4.798134   -0.000043    0.000115
     22         17           0        1.142576   -2.736722    0.000267
 ---------------------------------------------------------------------
 Rotational constants (GHZ):           0.7317291           0.2646113           0.2085328

 **********************************************************************

            Population analysis using the SCF Density.

 **********************************************************************

 Orbital symmetries:
       Occupied  (A) (A) (A) (A) (A) (A) (A) (A) (A) (A) (A) (A)
                 (A) (A) (A) (A) (A) (A) (A) (A) (A) (A) (A) (A)
                 (A) (A) (A) (A) (A) (A) (A) (A) (A) (A) (A) (A)
                 (A) (A) (A) (A) (A) (A) (A) (A) (A) (A) (A) (A)
                 (A) (A) (A) (A) (A) (A) (A) (A) (A) (A) (A) (A)
                 (A) (A) (A) (A) (A)
       Virtual   (A) (A) (A) (A) (A) (A) (A) (A) (A) (A) (A) (A)
                 (A) (A) (A) (A) (A) (A) (A) (A) (A) (A) (A) (A)
                 (A) (A) (A) (A) (A) (A) (A) (A) (A) (A) (A) (A)
                 (A) (A) (A) (A) (A) (A) (A) (A) (A) (A) (A) (A)
                 (A) (A) (A) (A) (A) (A) (A) (A) (A) (A) (A) (A)
                 (A) (A) (A) (A) (A) (A) (A) (A) (A) (A) (A) (A)
                 (A) (A) (A) (A) (A) (A) (A) (A) (A) (A) (A) (A)
                 (A) (A) (A) (A) (A) (A) (A) (A) (A) (A) (A) (A)
                 (A) (A) (A) (A) (A) (A) (A) (A) (A) (A) (A) (A)
                 (A) (A) (A) (A) (A) (A) (A) (A) (A) (A) (A) (A)
                 (A) (A) (A) (A) (A) (A) (A) (A) (A) (A) (A) (A)
                 (A) (A) (A) (A) (A) (A) (A) (A) (A) (A) (A) (A)
                 (A) (A) (A) (A) (A) (A) (A) (A) (A) (A) (A) (A)
                 (A) (A) (A) (A) (A) (A) (A) (A) (A) (A) (A) (A)
                 (A) (A) (A) (A) (A) (A) (A) (A) (A) (A) (A) (A)
                 (A) (A) (A) (A) (A) (A) (A) (A) (A) (A) (A) (A)
                 (A) (A) (A) (A) (A) (A) (A) (A) (A) (A) (A) (A)
                 (A) (A) (A) (A) (A) (A) (A) (A) (A) (A) (A) (A)
                 (A) (A) (A) (A) (A) (A) (A) (A) (A) (A) (A) (A)
                 (A) (A) (A) (A) (A) (A) (A) (A) (A) (A) (A) (A)
                 (A) (A) (A) (A) (A) (A) (A) (A) (A) (A) (A) (A)
                 (A) (A) (A) (A) (A) (A) (A) (A) (A) (A) (A) (A)
                 (A) (A) (A) (A) (A) (A) (A) (A) (A) (A) (A) (A)
                 (A) (A) (A) (A) (A) (A) (A) (A) (A) (A) (A) (A)
                 (A) (A) (A) (A) (A) (A) (A) (A) (A) (A) (A) (A)
                 (A) (A) (A) (A) (A) (A) (A) (A) (A) (A) (A) (A)
                 (A) (A) (A) (A) (A) (A) (A) (A) (A) (A) (A) (A)
                 (A) (A) (A) (A)
 The electronic state is 1-A.
 Alpha  occ. eigenvalues -- -101.56461-101.56461-101.55773 -10.26018 -10.26017
 Alpha  occ. eigenvalues --  -10.24710 -10.22336 -10.20689 -10.20683 -10.20457
 Alpha  occ. eigenvalues --  -10.20449 -10.19692 -10.19689 -10.19635 -10.19634
 Alpha  occ. eigenvalues --   -9.47930  -9.47929  -9.47230  -7.24395  -7.24395
 Alpha  occ. eigenvalues --   -7.23687  -7.23418  -7.23418  -7.23361  -7.23361
 Alpha  occ. eigenvalues --   -7.22715  -7.22681  -0.92791  -0.90171  -0.88603
 Alpha  occ. eigenvalues --   -0.85306  -0.84041  -0.79088  -0.77239  -0.75054
 Alpha  occ. eigenvalues --   -0.73484  -0.64615  -0.63598  -0.62067  -0.60342
 Alpha  occ. eigenvalues --   -0.55093  -0.51686  -0.51035  -0.49193  -0.48338
 Alpha  occ. eigenvalues --   -0.47145  -0.45229  -0.44756  -0.44679  -0.42344
 Alpha  occ. eigenvalues --   -0.40864  -0.40847  -0.39273  -0.37631  -0.37591
 Alpha  occ. eigenvalues --   -0.37515  -0.34468  -0.33609  -0.33080  -0.32193
 Alpha  occ. eigenvalues --   -0.32112  -0.27718  -0.27571  -0.26392  -0.25719
 Alpha virt. eigenvalues --   -0.04613  -0.04357  -0.03485  -0.03033  -0.01594
 Alpha virt. eigenvalues --   -0.00570   0.00829   0.01453   0.01852   0.01965
 Alpha virt. eigenvalues --    0.02275   0.02956   0.04144   0.04317   0.05347
 Alpha virt. eigenvalues --    0.05585   0.05804   0.06590   0.06823   0.07249
 Alpha virt. eigenvalues --    0.08350   0.08543   0.08911   0.09183   0.09510
 Alpha virt. eigenvalues --    0.09688   0.10605   0.11623   0.11704   0.12330
 Alpha virt. eigenvalues --    0.12400   0.13051   0.13238   0.13271   0.13615
 Alpha virt. eigenvalues --    0.13970   0.14638   0.15551   0.15955   0.16458
 Alpha virt. eigenvalues --    0.16605   0.16628   0.16986   0.17537   0.17692
 Alpha virt. eigenvalues --    0.17820   0.18353   0.18561   0.19526   0.19703
 Alpha virt. eigenvalues --    0.20308   0.20775   0.21053   0.21487   0.22140
 Alpha virt. eigenvalues --    0.22464   0.22513   0.22858   0.23104   0.23239
 Alpha virt. eigenvalues --    0.23899   0.24163   0.25001   0.25177   0.26021
 Alpha virt. eigenvalues --    0.26822   0.26921   0.26939   0.27506   0.28100
 Alpha virt. eigenvalues --    0.28296   0.29340   0.29441   0.29485   0.30735
 Alpha virt. eigenvalues --    0.31259   0.31956   0.32711   0.33432   0.34133
 Alpha virt. eigenvalues --    0.35459   0.37208   0.41329   0.42393   0.44949
 Alpha virt. eigenvalues --    0.45007   0.45541   0.45602   0.46762   0.47302
 Alpha virt. eigenvalues --    0.48041   0.49759   0.50420   0.50780   0.50936
 Alpha virt. eigenvalues --    0.51802   0.53098   0.53543   0.54570   0.55291
 Alpha virt. eigenvalues --    0.56862   0.57355   0.57441   0.58136   0.58655
 Alpha virt. eigenvalues --    0.59246   0.59564   0.60974   0.62111   0.62453
 Alpha virt. eigenvalues --    0.63825   0.64992   0.65640   0.65882   0.66154
 Alpha virt. eigenvalues --    0.66605   0.67125   0.68845   0.69162   0.69950
 Alpha virt. eigenvalues --    0.70525   0.70761   0.71255   0.72218   0.74012
 Alpha virt. eigenvalues --    0.74065   0.76288   0.79208   0.81292   0.81300
 Alpha virt. eigenvalues --    0.82157   0.82956   0.83690   0.84275   0.84638
 Alpha virt. eigenvalues --    0.85029   0.85752   0.85791   0.85889   0.85963
 Alpha virt. eigenvalues --    0.86726   0.87183   0.87767   0.88049   0.89640
 Alpha virt. eigenvalues --    0.92019   0.92031   0.93274   0.95700   0.95855
 Alpha virt. eigenvalues --    0.96119   0.96520   0.96834   0.97821   0.99712
 Alpha virt. eigenvalues --    1.00179   1.00866   1.01602   1.01801   1.04193
 Alpha virt. eigenvalues --    1.05156   1.06229   1.06388   1.08295   1.10523
 Alpha virt. eigenvalues --    1.12709   1.14777   1.18856   1.19292   1.24064
 Alpha virt. eigenvalues --    1.24831   1.26621   1.26697   1.28301   1.31241
 Alpha virt. eigenvalues --    1.31440   1.32254   1.33204   1.40315   1.41523
 Alpha virt. eigenvalues --    1.41629   1.47237   1.48626   1.49254   1.50012
 Alpha virt. eigenvalues --    1.54313   1.54850   1.55219   1.55422   1.57138
 Alpha virt. eigenvalues --    1.59649   1.60019   1.61638   1.63880   1.65722
 Alpha virt. eigenvalues --    1.67261   1.68364   1.68568   1.70201   1.71699
 Alpha virt. eigenvalues --    1.74461   1.76058   1.77405   1.79425   1.81807
 Alpha virt. eigenvalues --    1.83317   1.85992   1.87851   1.87869   1.89933
 Alpha virt. eigenvalues --    1.91989   1.94253   1.94530   1.95024   1.95849
 Alpha virt. eigenvalues --    1.95862   1.96289   1.98293   2.00707   2.02051
 Alpha virt. eigenvalues --    2.03183   2.05555   2.06691   2.09806   2.12818
 Alpha virt. eigenvalues --    2.17219   2.19495   2.19833   2.26395   2.27270
 Alpha virt. eigenvalues --    2.27502   2.28402   2.29416   2.29706   2.34367
 Alpha virt. eigenvalues --    2.37353   2.39212   2.40337   2.40959   2.41757
 Alpha virt. eigenvalues --    2.41840   2.47612   2.49900   2.52467   2.52935
 Alpha virt. eigenvalues --    2.54594   2.55760   2.57921   2.62690   2.65767
 Alpha virt. eigenvalues --    2.67634   2.68608   2.69794   2.70781   2.70820
 Alpha virt. eigenvalues --    2.73103   2.73395   2.73851   2.74699   2.76043
 Alpha virt. eigenvalues --    2.76124   2.76544   2.78009   2.79149   2.79193
 Alpha virt. eigenvalues --    2.84365   2.84568   2.85248   2.88786   2.91109
 Alpha virt. eigenvalues --    2.92727   2.97538   3.01013   3.10569   3.10673
 Alpha virt. eigenvalues --    3.13360   3.14768   3.15042   3.18774   3.22365
 Alpha virt. eigenvalues --    3.27886   3.32520   3.34144   3.38763   3.44110
 Alpha virt. eigenvalues --    3.47955   3.52987   3.60408   3.61343   3.70655
 Alpha virt. eigenvalues --    3.74152   3.81726   3.97096   3.98104   4.02092
 Alpha virt. eigenvalues --    4.08568   4.13071   4.14551   4.35853   4.81175
 Alpha virt. eigenvalues --    4.83148   9.77756   9.80321   9.83419  23.44361
 Alpha virt. eigenvalues --   23.61615  23.85248  23.89350  23.93202  23.94460
 Alpha virt. eigenvalues --   23.97637  24.04254  24.08362  24.08676  24.14675
 Alpha virt. eigenvalues --   24.17644  25.83040  25.85298  25.91429  26.12206
 Alpha virt. eigenvalues --   26.22139  26.27384  26.59928  26.60305  26.79139
 Alpha virt. eigenvalues --  215.76846 215.79912 215.83816
          Condensed to atoms (all electrons):
               1          2          3          4          5          6
     1  C   21.960629  -0.618123  -0.468347  -6.334057  -0.467911  -0.624503
     2  C   -0.618123  23.994545  -4.121466   3.123153  -4.254507  -3.795559
     3  C   -0.468347  -4.121466  22.263462  -4.614270  -6.461239  -4.254563
     4  C   -6.334057   3.123153  -4.614270  19.747521  -4.615564   3.124748
     5  C   -0.467911  -4.254507  -6.461239  -4.615564  22.267385  -4.127624
     6  C   -0.624503  -3.795559  -4.254563   3.124748  -4.127624  24.002382
     7  C    4.446734  -2.171370   1.813022  -1.976262   1.812281  -2.166594
     8  C   -2.905047  -2.101710   0.890302  -0.963701   0.891309  -2.101789
     9  C   -3.090665  -0.922167   0.271929  -0.216195   0.272574  -0.924015
    10  C   -0.719525  -0.029297  -0.013155  -0.022840  -0.013198  -0.029443
    11  C   -3.089678  -0.923950   0.271863  -0.216007   0.272233  -0.921206
    12  C   -2.904172  -2.099722   0.889596  -0.963022   0.890646  -2.101126
    13  H    0.053075   0.191522  -0.000445  -0.063845  -0.000351  -0.008540
    14  H    0.013044  -0.034256   0.263204   0.068762   0.059938  -0.020138
    15  H    0.013008  -0.020155   0.059965   0.068792   0.263167  -0.034231
    16  H    0.053120  -0.008526  -0.000364  -0.063839  -0.000430   0.191531
    17  H    0.016606   0.000520  -0.000358  -0.000004  -0.000359   0.000518
    18  H    0.007069  -0.000017  -0.000194   0.000054  -0.000194  -0.000017
    19  H    0.016607   0.000527  -0.000358  -0.000004  -0.000359   0.000510
    20  Cl   0.141648   0.153020   0.037860   0.029667   0.038618   0.151711
    21  Cl  -0.295815   0.428363  -0.024734  -1.102520  -0.024357   0.428247
    22  Cl   0.141234   0.151997   0.038472   0.029779   0.037833   0.153262
               7          8          9         10         11         12
     1  C    4.446734  -2.905047  -3.090665  -0.719525  -3.089678  -2.904172
     2  C   -2.171370  -2.101710  -0.922167  -0.029297  -0.923950  -2.099722
     3  C    1.813022   0.890302   0.271929  -0.013155   0.271863   0.889596
     4  C   -1.976262  -0.963701  -0.216195  -0.022840  -0.216007  -0.963022
     5  C    1.812281   0.891309   0.272574  -0.013198   0.272233   0.890646
     6  C   -2.166594  -2.101789  -0.924015  -0.029443  -0.921206  -2.101126
     7  C   13.948278   0.042361  -4.476295  -0.985455  -4.475170   0.041767
     8  C    0.042361  13.087623  -2.003166  -0.799817   3.385591  -0.709413
     9  C   -4.476295  -2.003166  11.712511   1.389431   0.645327   3.385714
    10  C   -0.985455  -0.799817   1.389431   6.828619   1.389069  -0.799535
    11  C   -4.475170   3.385591   0.645327   1.389069  11.710786  -2.003792
    12  C    0.041767  -0.709413   3.385714  -0.799535  -2.003792  13.085455
    13  H    0.038761   0.057255   0.013430   0.003598   0.013441   0.057201
    14  H    0.000400   0.001935   0.000057   0.000129   0.000055   0.001930
    15  H    0.000415   0.001929   0.000055   0.000129   0.000056   0.001933
    16  H    0.038697   0.057222   0.013441   0.003601   0.013423   0.057226
    17  H    0.080586   0.030342   0.310497  -0.046572  -0.026055  -0.011031
    18  H   -0.001700   0.007425  -0.029526   0.388628  -0.029528   0.007415
    19  H    0.080572  -0.011033  -0.026053  -0.046569   0.310514   0.030336
    20  Cl  -0.164085  -0.614860   0.298921  -0.095095  -0.529720  -0.196073
    21  Cl  -0.086631  -0.037006  -0.002426  -0.001563  -0.002421  -0.036983
    22  Cl  -0.164200  -0.196390  -0.529517  -0.095025   0.298992  -0.614810
              13         14         15         16         17         18
     1  C    0.053075   0.013044   0.013008   0.053120   0.016606   0.007069
     2  C    0.191522  -0.034256  -0.020155  -0.008526   0.000520  -0.000017
     3  C   -0.000445   0.263204   0.059965  -0.000364  -0.000358  -0.000194
     4  C   -0.063845   0.068762   0.068792  -0.063839  -0.000004   0.000054
     5  C   -0.000351   0.059938   0.263167  -0.000430  -0.000359  -0.000194
     6  C   -0.008540  -0.020138  -0.034231   0.191531   0.000518  -0.000017
     7  C    0.038761   0.000400   0.000415   0.038697   0.080586  -0.001700
     8  C    0.057255   0.001935   0.001929   0.057222   0.030342   0.007425
     9  C    0.013430   0.000057   0.000055   0.013441   0.310497  -0.029526
    10  C    0.003598   0.000129   0.000129   0.003601  -0.046572   0.388628
    11  C    0.013441   0.000055   0.000056   0.013423  -0.026055  -0.029528
    12  C    0.057201   0.001930   0.001933   0.057226  -0.011031   0.007415
    13  H    0.538289  -0.007690   0.000062  -0.000048   0.000002  -0.000003
    14  H   -0.007690   0.514873  -0.000304   0.000062   0.000000  -0.000000
    15  H    0.000062  -0.000304   0.514873  -0.007691   0.000000  -0.000000
    16  H   -0.000048   0.000062  -0.007691   0.538288   0.000002  -0.000003
    17  H    0.000002   0.000000   0.000000   0.000002   0.509987  -0.007630
    18  H   -0.000003  -0.000000  -0.000000  -0.000003  -0.007630   0.523724
    19  H    0.000002   0.000000   0.000000   0.000002  -0.000188  -0.007630
    20  Cl  -0.005661  -0.000785  -0.000787  -0.005650   0.000516   0.000566
    21  Cl  -0.000949  -0.011693  -0.011694  -0.000948  -0.000001   0.000000
    22  Cl  -0.005646  -0.000787  -0.000785  -0.005658  -0.008116   0.000565
              19         20         21         22
     1  C    0.016607   0.141648  -0.295815   0.141234
     2  C    0.000527   0.153020   0.428363   0.151997
     3  C   -0.000358   0.037860  -0.024734   0.038472
     4  C   -0.000004   0.029667  -1.102520   0.029779
     5  C   -0.000359   0.038618  -0.024357   0.037833
     6  C    0.000510   0.151711   0.428247   0.153262
     7  C    0.080572  -0.164085  -0.086631  -0.164200
     8  C   -0.011033  -0.614860  -0.037006  -0.196390
     9  C   -0.026053   0.298921  -0.002426  -0.529517
    10  C   -0.046569  -0.095095  -0.001563  -0.095025
    11  C    0.310514  -0.529720  -0.002421   0.298992
    12  C    0.030336  -0.196073  -0.036983  -0.614810
    13  H    0.000002  -0.005661  -0.000949  -0.005646
    14  H    0.000000  -0.000785  -0.011693  -0.000787
    15  H    0.000000  -0.000787  -0.011694  -0.000785
    16  H    0.000002  -0.005650  -0.000948  -0.005658
    17  H   -0.000188   0.000516  -0.000001  -0.008116
    18  H   -0.007630   0.000566   0.000000   0.000565
    19  H    0.509987  -0.008116  -0.000001   0.000516
    20  Cl  -0.008116  17.441189   0.005712  -0.065529
    21  Cl  -0.000001   0.005712  17.403064   0.005715
    22  Cl   0.000516  -0.065529   0.005715  17.441183
 Mulliken charges:
               1
     1  C    0.655066
     2  C   -0.942824
     3  C   -0.840182
     4  C    0.959654
     5  C   -0.839893
     6  C   -0.943562
     7  C    0.323888
     8  C   -0.009363
     9  C   -0.093862
    10  C   -0.306116
    11  C   -0.093822
    12  C   -0.009543
    13  H    0.126538
    14  H    0.151262
    15  H    0.151262
    16  H    0.126540
    17  H    0.150737
    18  H    0.140995
    19  H    0.150736
    20  Cl   0.386932
    21  Cl   0.368642
    22  Cl   0.386913
 Sum of Mulliken charges =  -0.00000
 Mulliken charges with hydrogens summed into heavy atoms:
               1
     1  C    0.655066
     2  C   -0.816286
     3  C   -0.688920
     4  C    0.959654
     5  C   -0.688630
     6  C   -0.817022
     7  C    0.323888
     8  C   -0.009363
     9  C    0.056875
    10  C   -0.165121
    11  C    0.056914
    12  C   -0.009543
    20  Cl   0.386932
    21  Cl   0.368642
    22  Cl   0.386913
 Electronic spatial extent (au):  <R**2>=           4831.8903
 Charge=             -0.0000 electrons
 Dipole moment (field-independent basis, Debye):
    X=              2.9711    Y=              0.0002    Z=              0.0002  Tot=              2.9711
 Quadrupole moment (field-independent basis, Debye-Ang):
   XX=           -101.6101   YY=           -112.4711   ZZ=           -103.3830
   XY=              0.0005   XZ=              0.0019   YZ=              0.0059
 Traceless Quadrupole moment (field-independent basis, Debye-Ang):
   XX=              4.2113   YY=             -6.6497   ZZ=              2.4384
   XY=              0.0005   XZ=              0.0019   YZ=              0.0059
 Octapole moment (field-independent basis, Debye-Ang**2):
  XXX=             90.6384  YYY=              0.0012  ZZZ=             -0.0008  XYY=              3.0908
  XXY=              0.0036  XXZ=              0.0058  XZZ=            -22.3842  YZZ=             -0.0000
  YYZ=              0.0017  XYZ=             -0.0093
 Hexadecapole moment (field-independent basis, Debye-Ang**3):
 XXXX=          -4440.4078 YYYY=          -1473.3578 ZZZZ=           -348.7210 XXXY=             -0.0012
 XXXZ=              0.0406 YYYX=             -0.0001 YYYZ=             -0.0168 ZZZX=             -0.0021
 ZZZY=              0.0316 XXYY=          -1002.8474 XXZZ=           -845.2068 YYZZ=           -327.7561
 XXYZ=              0.0276 YYXZ=              0.0042 ZZXY=             -0.0018
 N-N= 1.207808132559D+03 E-N=-6.767904893039D+03  KE= 1.836981651443D+03
 1\1\GINC-DAMODAR\FOpt\RB3LYP\6-311+G(d,p)\C12H7Cl3\PKC\15-Mar-2022\0\\
 # opt b3lyp/6-311+g(d,p) scf=xqc\\Title Card Required\\0,1\C,-0.427253
 0466,-0.1181070738,-0.0026906381\C,0.8360486764,-0.032663241,0.5876613
 718\C,1.5451678438,1.1654225868,0.5856621164\C,0.9795061925,2.28532571
 98,-0.0142703255\C,-0.2764842247,2.2259115679,-0.6084551538\C,-0.97388
 62095,1.0210144147,-0.5988395562\C,-1.1813973072,-1.4064169863,0.00352
 45334\C,-1.0510542806,-2.3473434662,-1.0299547278\C,-1.7478856835,-3.5
 517828282,-1.036890039\C,-2.6087363054,-3.8441365668,0.0151659952\C,-2
 .7707131265,-2.9428672302,1.0615183398\C,-2.0614187969,-1.7458546464,1
 .0431262885\H,1.2728008845,-0.9081576037,1.0541207351\H,2.5238077625,1
 .2286024642,1.0437711242\H,-0.7025342321,3.1068513434,-1.0710766006\H,
 -1.9530702587,0.969799616,-1.0607923742\H,-1.613077697,-4.2446278503,-
 1.8568900386\H,-3.1562757297,-4.7791900964,0.0196124758\H,-3.437529444
 3,-3.1584985642,1.8858159237\Cl,-2.2930693833,-0.6327375433,2.38351549
 2\Cl,1.868002286,3.8033799486,-0.0215183318\Cl,0.027265824,-2.01410171
 93,-2.3773706288\\Version=EM64L-G16RevB.01\State=1-A\HF=-1842.2823359\
 RMSD=8.405e-09\RMSF=1.527e-05\Dipole=-0.5905972,-1.0087136,0.004857\Qu
 adrupole=0.9383631,2.3639669,-3.3023299,1.2968143,2.4874958,-1.4864285
 \PG=C01 [X(C12H7Cl3)]\\@


 Other things may change us, but we start and end with family.
 -- Anthony Brandt
 Job cpu time:       0 days 10 hours 43 minutes 19.6 seconds.
 Elapsed time:       0 days  3 hours 12 minutes 42.0 seconds.
 File lengths (MBytes):  RWF=    107 Int=      0 D2E=      0 Chk=     15 Scr=      1
 Normal termination of Gaussian 16 at Tue Mar 15 04:17:24 2022.
