 Entering Gaussian System, Link 0=g16
 Input=2,4prime-Dichlorobiphenyl.gjf
 Output=2,4prime-Dichlorobiphenyl.log
 Initial command:
 /usr/local/g16/l1.exe "/scratch/pkc/Gau-2936.inp" -scrdir="/scratch/pkc/"
 Entering Link 1 = /usr/local/g16/l1.exe PID=      2937.
  
 Copyright (c) 1988-2017, Gaussian, Inc.  All Rights Reserved.
  
 This is part of the Gaussian(R) 16 program.  It is based on
 the Gaussian(R) 09 system (copyright 2009, Gaussian, Inc.),
 the Gaussian(R) 03 system (copyright 2003, Gaussian, Inc.),
 the Gaussian(R) 98 system (copyright 1998, Gaussian, Inc.),
 the Gaussian(R) 94 system (copyright 1995, Gaussian, Inc.),
 the Gaussian 92(TM) system (copyright 1992, Gaussian, Inc.),
 the Gaussian 90(TM) system (copyright 1990, Gaussian, Inc.),
 the Gaussian 88(TM) system (copyright 1988, Gaussian, Inc.),
 the Gaussian 86(TM) system (copyright 1986, Carnegie Mellon
 University), and the Gaussian 82(TM) system (copyright 1983,
 Carnegie Mellon University). Gaussian is a federally registered
 trademark of Gaussian, Inc.
  
 This software contains proprietary and confidential information,
 including trade secrets, belonging to Gaussian, Inc.
  
 This software is provided under written license and may be
 used, copied, transmitted, or stored only in accord with that
 written license.
  
 The following legend is applicable only to US Government
 contracts under FAR:
  
                    RESTRICTED RIGHTS LEGEND
  
 Use, reproduction and disclosure by the US Government is
 subject to restrictions as set forth in subparagraphs (a)
 and (c) of the Commercial Computer Software - Restricted
 Rights clause in FAR 52.227-19.
  
 Gaussian, Inc.
 340 Quinnipiac St., Bldg. 40, Wallingford CT 06492
  
  
 ---------------------------------------------------------------
 Warning -- This program may not be used in any manner that
 competes with the business of Gaussian, Inc. or will provide
 assistance to any competitor of Gaussian, Inc.  The licensee
 of this program is prohibited from giving any competitor of
 Gaussian, Inc. access to this program.  By using this program,
 the user acknowledges that Gaussian, Inc. is engaged in the
 business of creating and licensing software in the field of
 computational chemistry and represents and warrants to the
 licensee that it is not a competitor of Gaussian, Inc. and that
 it will not use this program in any manner prohibited above.
 ---------------------------------------------------------------
  

 Cite this work as:
 Gaussian 16, Revision B.01,
 M. J. Frisch, G. W. Trucks, H. B. Schlegel, G. E. Scuseria, 
 M. A. Robb, J. R. Cheeseman, G. Scalmani, V. Barone, 
 G. A. Petersson, H. Nakatsuji, X. Li, M. Caricato, A. V. Marenich, 
 J. Bloino, B. G. Janesko, R. Gomperts, B. Mennucci, H. P. Hratchian, 
 J. V. Ortiz, A. F. Izmaylov, J. L. Sonnenberg, D. Williams-Young, 
 F. Ding, F. Lipparini, F. Egidi, J. Goings, B. Peng, A. Petrone, 
 T. Henderson, D. Ranasinghe, V. G. Zakrzewski, J. Gao, N. Rega, 
 G. Zheng, W. Liang, M. Hada, M. Ehara, K. Toyota, R. Fukuda, 
 J. Hasegawa, M. Ishida, T. Nakajima, Y. Honda, O. Kitao, H. Nakai, 
 T. Vreven, K. Throssell, J. A. Montgomery, Jr., J. E. Peralta, 
 F. Ogliaro, M. J. Bearpark, J. J. Heyd, E. N. Brothers, K. N. Kudin, 
 V. N. Staroverov, T. A. Keith, R. Kobayashi, J. Normand, 
 K. Raghavachari, A. P. Rendell, J. C. Burant, S. S. Iyengar, 
 J. Tomasi, M. Cossi, J. M. Millam, M. Klene, C. Adamo, R. Cammi, 
 J. W. Ochterski, R. L. Martin, K. Morokuma, O. Farkas, 
 J. B. Foresman, and D. J. Fox, Gaussian, Inc., Wallingford CT, 2016.
 
 ******************************************
 Gaussian 16:  EM64L-G16RevB.01 20-Dec-2017
                14-Mar-2022 
 ******************************************
 %mem=10GB
 %nprocshared=4
 Will use up to    4 processors via shared memory.
 --------------------------------
 # opt b3lyp/6-311+g(d,p) scf=xqc
 --------------------------------
 1/18=20,19=15,26=3,38=1/1,3;
 2/9=110,12=2,17=6,18=5,40=1/2;
 3/5=4,6=6,7=111,11=2,25=1,30=1,71=1,74=-5/1,2,3;
 4//1;
 5/5=2,8=3,13=1,38=5/2,8;
 6/7=2,8=2,9=2,10=2,28=1/1;
 7//1,2,3,16;
 1/18=20,19=15,26=3/3(2);
 2/9=110/2;
 99//99;
 2/9=110/2;
 3/5=4,6=6,7=111,11=2,25=1,30=1,71=1,74=-5/1,2,3;
 4/5=5,16=3,69=1/1;
 5/5=2,8=3,13=1,38=5/2,8;
 7//1,2,3,16;
 1/18=20,19=15,26=3/3(-5);
 2/9=110/2;
 6/7=2,8=2,9=2,10=2,19=2,28=1/1;
 99/9=1/99;
 -------------------
 Title Card Required
 -------------------
 Symbolic Z-matrix:
 Charge =  0 Multiplicity = 1
 C                    -1.83202  -0.63437   0.10787 
 C                    -0.49964  -0.60448  -0.32547 
 C                     0.20825   0.60497  -0.33155 
 C                    -0.41623   1.78454   0.09573 
 C                    -1.74861   1.75465   0.52907 
 C                    -2.45651   0.5452    0.53515 
 C                    -2.60993  -1.96343   0.11455 
 C                    -1.98544  -3.143    -0.31273 
 C                    -2.69333  -4.35245  -0.30665 
 C                    -4.02571  -4.38234   0.1267 
 C                    -4.6502   -3.20277   0.55397 
 C                    -3.94231  -1.99332   0.5479 
 H                     1.22556   0.62779  -0.66242 
 H                     0.12426   2.70798   0.09109 
 H                    -2.22543   2.65527   0.8553 
 H                    -3.47381   0.52238   0.86602 
 H                    -0.96814  -3.12018  -0.6436 
 H                    -2.21652  -5.25307  -0.63289 
 H                    -5.6675   -3.22559   0.88485 
 H                    -4.41911  -1.0927    0.87413 
 Cl                    0.28465  -2.08588  -0.86208 
 Cl                   -4.91474  -5.90127   0.13433 
 

 GradGradGradGradGradGradGradGradGradGradGradGradGradGradGradGradGradGrad
 Berny optimization.
 Initialization pass.
                           ----------------------------
                           !    Initial Parameters    !
                           ! (Angstroms and Degrees)  !
 --------------------------                            --------------------------
 ! Name  Definition              Value          Derivative Info.                !
 --------------------------------------------------------------------------------
 ! R1    R(1,2)                  1.4014         estimate D2E/DX2                !
 ! R2    R(1,6)                  1.4014         estimate D2E/DX2                !
 ! R3    R(1,7)                  1.54           estimate D2E/DX2                !
 ! R4    R(2,3)                  1.4014         estimate D2E/DX2                !
 ! R5    R(2,21)                 1.76           estimate D2E/DX2                !
 ! R6    R(3,4)                  1.4014         estimate D2E/DX2                !
 ! R7    R(3,13)                 1.07           estimate D2E/DX2                !
 ! R8    R(4,5)                  1.4014         estimate D2E/DX2                !
 ! R9    R(4,14)                 1.07           estimate D2E/DX2                !
 ! R10   R(5,6)                  1.4014         estimate D2E/DX2                !
 ! R11   R(5,15)                 1.07           estimate D2E/DX2                !
 ! R12   R(6,16)                 1.07           estimate D2E/DX2                !
 ! R13   R(7,8)                  1.4014         estimate D2E/DX2                !
 ! R14   R(7,12)                 1.4014         estimate D2E/DX2                !
 ! R15   R(8,9)                  1.4014         estimate D2E/DX2                !
 ! R16   R(8,17)                 1.07           estimate D2E/DX2                !
 ! R17   R(9,10)                 1.4014         estimate D2E/DX2                !
 ! R18   R(9,18)                 1.07           estimate D2E/DX2                !
 ! R19   R(10,11)                1.4014         estimate D2E/DX2                !
 ! R20   R(10,22)                1.76           estimate D2E/DX2                !
 ! R21   R(11,12)                1.4014         estimate D2E/DX2                !
 ! R22   R(11,19)                1.07           estimate D2E/DX2                !
 ! R23   R(12,20)                1.07           estimate D2E/DX2                !
 ! A1    A(2,1,6)              120.0            estimate D2E/DX2                !
 ! A2    A(2,1,7)              120.0            estimate D2E/DX2                !
 ! A3    A(6,1,7)              120.0            estimate D2E/DX2                !
 ! A4    A(1,2,3)              120.0            estimate D2E/DX2                !
 ! A5    A(1,2,21)             120.0            estimate D2E/DX2                !
 ! A6    A(3,2,21)             120.0            estimate D2E/DX2                !
 ! A7    A(2,3,4)              120.0            estimate D2E/DX2                !
 ! A8    A(2,3,13)             120.0            estimate D2E/DX2                !
 ! A9    A(4,3,13)             120.0            estimate D2E/DX2                !
 ! A10   A(3,4,5)              120.0            estimate D2E/DX2                !
 ! A11   A(3,4,14)             120.0            estimate D2E/DX2                !
 ! A12   A(5,4,14)             120.0            estimate D2E/DX2                !
 ! A13   A(4,5,6)              120.0            estimate D2E/DX2                !
 ! A14   A(4,5,15)             120.0            estimate D2E/DX2                !
 ! A15   A(6,5,15)             120.0            estimate D2E/DX2                !
 ! A16   A(1,6,5)              120.0            estimate D2E/DX2                !
 ! A17   A(1,6,16)             120.0            estimate D2E/DX2                !
 ! A18   A(5,6,16)             120.0            estimate D2E/DX2                !
 ! A19   A(1,7,8)              120.0            estimate D2E/DX2                !
 ! A20   A(1,7,12)             120.0            estimate D2E/DX2                !
 ! A21   A(8,7,12)             120.0            estimate D2E/DX2                !
 ! A22   A(7,8,9)              120.0            estimate D2E/DX2                !
 ! A23   A(7,8,17)             120.0            estimate D2E/DX2                !
 ! A24   A(9,8,17)             120.0            estimate D2E/DX2                !
 ! A25   A(8,9,10)             120.0            estimate D2E/DX2                !
 ! A26   A(8,9,18)             120.0            estimate D2E/DX2                !
 ! A27   A(10,9,18)            120.0            estimate D2E/DX2                !
 ! A28   A(9,10,11)            120.0            estimate D2E/DX2                !
 ! A29   A(9,10,22)            120.0            estimate D2E/DX2                !
 ! A30   A(11,10,22)           120.0            estimate D2E/DX2                !
 ! A31   A(10,11,12)           120.0            estimate D2E/DX2                !
 ! A32   A(10,11,19)           120.0            estimate D2E/DX2                !
 ! A33   A(12,11,19)           120.0            estimate D2E/DX2                !
 ! A34   A(7,12,11)            120.0            estimate D2E/DX2                !
 ! A35   A(7,12,20)            120.0            estimate D2E/DX2                !
 ! A36   A(11,12,20)           120.0            estimate D2E/DX2                !
 ! D1    D(6,1,2,3)              0.0001         estimate D2E/DX2                !
 ! D2    D(6,1,2,21)           180.0            estimate D2E/DX2                !
 ! D3    D(7,1,2,3)           -180.0            estimate D2E/DX2                !
 ! D4    D(7,1,2,21)            -0.0001         estimate D2E/DX2                !
 ! D5    D(2,1,6,5)             -0.0001         estimate D2E/DX2                !
 ! D6    D(2,1,6,16)           180.0            estimate D2E/DX2                !
 ! D7    D(7,1,6,5)            180.0            estimate D2E/DX2                !
 ! D8    D(7,1,6,16)             0.0            estimate D2E/DX2                !
 ! D9    D(2,1,7,8)             -0.0001         estimate D2E/DX2                !
 ! D10   D(2,1,7,12)           179.9998         estimate D2E/DX2                !
 ! D11   D(6,1,7,8)            179.9999         estimate D2E/DX2                !
 ! D12   D(6,1,7,12)            -0.0002         estimate D2E/DX2                !
 ! D13   D(1,2,3,4)              0.0            estimate D2E/DX2                !
 ! D14   D(1,2,3,13)           180.0            estimate D2E/DX2                !
 ! D15   D(21,2,3,4)          -179.9999         estimate D2E/DX2                !
 ! D16   D(21,2,3,13)            0.0001         estimate D2E/DX2                !
 ! D17   D(2,3,4,5)             -0.0001         estimate D2E/DX2                !
 ! D18   D(2,3,4,14)           180.0            estimate D2E/DX2                !
 ! D19   D(13,3,4,5)           179.9999         estimate D2E/DX2                !
 ! D20   D(13,3,4,14)            0.0            estimate D2E/DX2                !
 ! D21   D(3,4,5,6)              0.0001         estimate D2E/DX2                !
 ! D22   D(3,4,5,15)          -179.9999         estimate D2E/DX2                !
 ! D23   D(14,4,5,6)          -180.0            estimate D2E/DX2                !
 ! D24   D(14,4,5,15)            0.0            estimate D2E/DX2                !
 ! D25   D(4,5,6,1)              0.0            estimate D2E/DX2                !
 ! D26   D(4,5,6,16)           179.9999         estimate D2E/DX2                !
 ! D27   D(15,5,6,1)           180.0            estimate D2E/DX2                !
 ! D28   D(15,5,6,16)           -0.0001         estimate D2E/DX2                !
 ! D29   D(1,7,8,9)            179.9999         estimate D2E/DX2                !
 ! D30   D(1,7,8,17)             0.0001         estimate D2E/DX2                !
 ! D31   D(12,7,8,9)             0.0001         estimate D2E/DX2                !
 ! D32   D(12,7,8,17)         -179.9998         estimate D2E/DX2                !
 ! D33   D(1,7,12,11)         -179.9999         estimate D2E/DX2                !
 ! D34   D(1,7,12,20)            0.0            estimate D2E/DX2                !
 ! D35   D(8,7,12,11)           -0.0001         estimate D2E/DX2                !
 ! D36   D(8,7,12,20)          179.9999         estimate D2E/DX2                !
 ! D37   D(7,8,9,10)             0.0            estimate D2E/DX2                !
 ! D38   D(7,8,9,18)           180.0            estimate D2E/DX2                !
 ! D39   D(17,8,9,10)          179.9998         estimate D2E/DX2                !
 ! D40   D(17,8,9,18)           -0.0002         estimate D2E/DX2                !
 ! D41   D(8,9,10,11)            0.0            estimate D2E/DX2                !
 ! D42   D(8,9,10,22)         -179.9999         estimate D2E/DX2                !
 ! D43   D(18,9,10,11)         180.0            estimate D2E/DX2                !
 ! D44   D(18,9,10,22)           0.0001         estimate D2E/DX2                !
 ! D45   D(9,10,11,12)           0.0            estimate D2E/DX2                !
 ! D46   D(9,10,11,19)        -179.9998         estimate D2E/DX2                !
 ! D47   D(22,10,11,12)        179.9999         estimate D2E/DX2                !
 ! D48   D(22,10,11,19)          0.0001         estimate D2E/DX2                !
 ! D49   D(10,11,12,7)           0.0            estimate D2E/DX2                !
 ! D50   D(10,11,12,20)       -179.9999         estimate D2E/DX2                !
 ! D51   D(19,11,12,7)         179.9999         estimate D2E/DX2                !
 ! D52   D(19,11,12,20)         -0.0001         estimate D2E/DX2                !
 --------------------------------------------------------------------------------
 Trust Radius=3.00D-01 FncErr=1.00D-07 GrdErr=1.00D-06 EigMax=2.50D+02 EigMin=1.00D-04
 Number of steps in this run=    121 maximum allowed number of steps=    132.
 GradGradGradGradGradGradGradGradGradGradGradGradGradGradGradGradGradGrad

                          Input orientation:                          
 ---------------------------------------------------------------------
 Center     Atomic      Atomic             Coordinates (Angstroms)
 Number     Number       Type             X           Y           Z
 ---------------------------------------------------------------------
      1          6           0       -1.832020   -0.634367    0.107873
      2          6           0       -0.499639   -0.604481   -0.325474
      3          6           0        0.208254    0.604970   -0.331546
      4          6           0       -0.416233    1.784535    0.095729
      5          6           0       -1.748615    1.754650    0.529073
      6          6           0       -2.456508    0.545199    0.535146
      7          6           0       -2.609925   -1.963434    0.114547
      8          6           0       -1.985438   -3.142999   -0.312728
      9          6           0       -2.693331   -4.352451   -0.306654
     10          6           0       -4.025711   -4.382337    0.126696
     11          6           0       -4.650198   -3.202772    0.553971
     12          6           0       -3.942305   -1.993321    0.547897
     13          1           0        1.225557    0.627788   -0.662415
     14          1           0        0.124260    2.707978    0.091093
     15          1           0       -2.225426    2.655274    0.855305
     16          1           0       -3.473811    0.522380    0.866015
     17          1           0       -0.968135   -3.120181   -0.643598
     18          1           0       -2.216521   -5.253075   -0.632888
     19          1           0       -5.667499   -3.225591    0.884846
     20          1           0       -4.419115   -1.092697    0.874132
     21         17           0        0.284647   -2.085882   -0.862079
     22         17           0       -4.914744   -5.901272    0.134327
 ---------------------------------------------------------------------
                    Distance matrix (angstroms):
                    1          2          3          4          5
     1  C    0.000000
     2  C    1.401400   0.000000
     3  C    2.427296   1.401400   0.000000
     4  C    2.802800   2.427296   1.401400   0.000000
     5  C    2.427296   2.802800   2.427296   1.401400   0.000000
     6  C    1.401400   2.427296   2.802800   2.427296   1.401400
     7  C    1.540000   2.548270   3.838989   4.342800   3.838989
     8  C    2.548270   2.941400   4.342800   5.187469   4.975106
     9  C    3.838989   4.342800   5.744200   6.558176   6.235992
    10  C    4.342800   5.187469   6.558176   7.145600   6.558176
    11  C    3.838989   4.975106   6.235992   6.558176   5.744200
    12  C    2.548270   3.813607   4.975106   5.187469   4.342800
    13  H    3.396345   2.146700   1.070000   2.146700   3.396345
    14  H    3.872800   3.396345   2.146700   1.070000   2.146700
    15  H    3.396345   3.872800   3.396345   2.146700   1.070000
    16  H    2.146700   3.396345   3.872800   3.396345   2.146700
    17  H    2.736837   2.578650   3.918930   4.990735   5.074276
    18  H    4.693509   4.965039   6.347206   7.300676   7.118798
    19  H    4.693509   5.919617   7.118798   7.300676   6.347206
    20  H    2.736837   4.127917   5.074276   4.990735   3.918930
    21  Cl   2.743718   1.760000   2.743718   4.048303   4.562800
    22  Cl   6.102800   6.910901   8.294174   8.905600   8.294174
                    6          7          8          9         10
     6  C    0.000000
     7  C    2.548270   0.000000
     8  C    3.813607   1.401400   0.000000
     9  C    4.975106   2.427296   1.401400   0.000000
    10  C    5.187469   2.802800   2.427296   1.401400   0.000000
    11  C    4.342800   2.427296   2.802800   2.427296   1.401400
    12  C    2.941400   1.401400   2.427296   2.802800   2.427296
    13  H    3.872800   4.693509   4.965039   6.347206   7.300676
    14  H    3.396345   5.412800   6.232802   7.612271   8.215600
    15  H    2.146700   4.693509   5.919617   7.118798   7.300676
    16  H    1.070000   2.736837   4.127917   5.074276   4.990735
    17  H    4.127917   2.146700   1.070000   2.146700   3.396345
    18  H    5.919617   3.396345   2.146700   1.070000   2.146700
    19  H    4.965039   3.396345   3.872800   3.396345   2.146700
    20  H    2.578650   2.146700   3.396345   3.872800   3.396345
    21  Cl   4.048303   3.057342   2.563702   3.783409   4.983028
    22  Cl   6.910901   4.562800   4.048303   2.743718   1.760000
                   11         12         13         14         15
    11  C    0.000000
    12  C    1.401400   0.000000
    13  H    7.118798   5.919617   0.000000
    14  H    7.612271   6.232802   2.471400   0.000000
    15  H    6.347206   4.965039   4.280590   2.471400   0.000000
    16  H    3.918930   2.578650   4.942800   4.280590   2.471400
    17  H    3.872800   3.396345   4.342800   5.974992   6.097816
    18  H    3.396345   3.872800   6.814200   8.329571   8.047159
    19  H    1.070000   2.146700   8.047159   8.329571   6.814200
    20  H    2.146700   1.070000   6.097816   5.974992   4.342800
    21  Cl   5.254079   4.456874   2.879094   4.890332   5.632800
    22  Cl   2.743718   4.048303   8.998151   9.975600   8.998151
                   16         17         18         19         20
    16  H    0.000000
    17  H    4.671787   0.000000
    18  H    6.097816   2.471400   0.000000
    19  H    4.342800   4.942800   4.280590   0.000000
    20  H    1.871400   4.280590   4.942800   2.471400   0.000000
    21  Cl   4.890332   1.639199   4.042212   6.307038   5.111382
    22  Cl   6.623817   4.890332   2.879094   2.879094   4.890332
                   21         22
    21  Cl   0.000000
    22  Cl   6.525618   0.000000
 Stoichiometry    C12H8Cl2
 Framework group  C1[X(C12H8Cl2)]
 Deg. of freedom    60
 Full point group                 C1      NOp   1
 Largest Abelian subgroup         C1      NOp   1
 Largest concise Abelian subgroup C1      NOp   1
                         Standard orientation:                         
 ---------------------------------------------------------------------
 Center     Atomic      Atomic             Coordinates (Angstroms)
 Number     Number       Type             X           Y           Z
 ---------------------------------------------------------------------
      1          6           0        1.409912   -0.500836    0.000001
      2          6           0        2.203009    0.654551    0.000000
      3          6           0        3.600152    0.545401   -0.000001
      4          6           0        4.204197   -0.719135   -0.000003
      5          6           0        3.411100   -1.874521    0.000000
      6          6           0        2.013957   -1.765372    0.000002
      7          6           0       -0.125410   -0.380891    0.000002
      8          6           0       -0.729455    0.883645    0.000004
      9          6           0       -2.126598    0.992795    0.000003
     10          6           0       -2.919696   -0.162592    0.000001
     11          6           0       -2.315651   -1.427128   -0.000001
     12          6           0       -0.918508   -1.536278   -0.000001
     13          1           0        4.205700    1.427564   -0.000003
     14          1           0        5.270947   -0.802473   -0.000004
     15          1           0        3.872302   -2.840023    0.000002
     16          1           0        1.408409   -2.647535    0.000003
     17          1           0       -0.123908    1.765808    0.000003
     18          1           0       -2.587800    1.958296    0.000005
     19          1           0       -2.921199   -2.309291   -0.000005
     20          1           0       -0.457306   -2.501779   -0.000003
     21         17           0        1.444397    2.242665   -0.000001
     22         17           0       -4.674350   -0.025512   -0.000002
 ---------------------------------------------------------------------
 Rotational constants (GHZ):           1.3107502           0.2822276           0.2322254
 Standard basis: 6-311+G(d,p) (5D, 7F)
 There are   386 symmetry adapted cartesian basis functions of A   symmetry.
 There are   372 symmetry adapted basis functions of A   symmetry.
   372 basis functions,   602 primitive gaussians,   386 cartesian basis functions
    57 alpha electrons       57 beta electrons
       nuclear repulsion energy       974.0606680003 Hartrees.
 NAtoms=   22 NActive=   22 NUniq=   22 SFac= 1.00D+00 NAtFMM=   60 NAOKFM=F Big=F
 Integral buffers will be    131072 words long.
 Raffenetti 2 integral format.
 Two-electron integral symmetry is turned on.
 One-electron integrals computed using PRISM.
 NBasis=   372 RedAO= T EigKep=  1.07D-06  NBF=   372
 NBsUse=   368 1.00D-06 EigRej=  8.64D-07 NBFU=   368
 ExpMin= 4.38D-02 ExpMax= 1.06D+05 ExpMxC= 3.62D+03 IAcc=3 IRadAn=         5 AccDes= 0.00D+00
 Harris functional with IExCor=  402 and IRadAn=       5 diagonalized for initial guess.
 HarFok:  IExCor=  402 AccDes= 0.00D+00 IRadAn=         5 IDoV= 1 UseB2=F ITyADJ=14
 ICtDFT=  3500011 ScaDFX=  1.000000  1.000000  1.000000  1.000000
 FoFCou: FMM=F IPFlag=           0 FMFlag=      100000 FMFlg1=           0
         NFxFlg=           0 DoJE=T BraDBF=F KetDBF=T FulRan=T
         wScrn=  0.000000 ICntrl=       500 IOpCl=  0 I1Cent=   200000004 NGrid=           0
         NMat0=    1 NMatS0=      1 NMatT0=    0 NMatD0=    1 NMtDS0=    0 NMtDT0=    0
 Petite list used in FoFCou.
 Requested convergence on RMS density matrix=1.00D-08 within  32 cycles.
 Requested convergence on MAX density matrix=1.00D-06.
 Requested convergence on             energy=1.00D-06.
 No special actions if energy rises.
 SCF Done:  E(RB3LYP) =  -1382.60287347     A.U. after   15 cycles
            NFock= 15  Conv=0.78D-08     -V/T= 2.0029
 QCSCF skips out because SCF is already converged.

 **********************************************************************

            Population analysis using the SCF Density.

 **********************************************************************

 Orbital symmetries:
       Occupied  (A) (A) (A) (A) (A) (A) (A) (A) (A) (A) (A) (A)
                 (A) (A) (A) (A) (A) (A) (A) (A) (A) (A) (A) (A)
                 (A) (A) (A) (A) (A) (A) (A) (A) (A) (A) (A) (A)
                 (A) (A) (A) (A) (A) (A) (A) (A) (A) (A) (A) (A)
                 (A) (A) (A) (A) (A) (A) (A) (A) (A)
       Virtual   (A) (A) (A) (A) (A) (A) (A) (A) (A) (A) (A) (A)
                 (A) (A) (A) (A) (A) (A) (A) (A) (A) (A) (A) (A)
                 (A) (A) (A) (A) (A) (A) (A) (A) (A) (A) (A) (A)
                 (A) (A) (A) (A) (A) (A) (A) (A) (A) (A) (A) (A)
                 (A) (A) (A) (A) (A) (A) (A) (A) (A) (A) (A) (A)
                 (A) (A) (A) (A) (A) (A) (A) (A) (A) (A) (A) (A)
                 (A) (A) (A) (A) (A) (A) (A) (A) (A) (A) (A) (A)
                 (A) (A) (A) (A) (A) (A) (A) (A) (A) (A) (A) (A)
                 (A) (A) (A) (A) (A) (A) (A) (A) (A) (A) (A) (A)
                 (A) (A) (A) (A) (A) (A) (A) (A) (A) (A) (A) (A)
                 (A) (A) (A) (A) (A) (A) (A) (A) (A) (A) (A) (A)
                 (A) (A) (A) (A) (A) (A) (A) (A) (A) (A) (A) (A)
                 (A) (A) (A) (A) (A) (A) (A) (A) (A) (A) (A) (A)
                 (A) (A) (A) (A) (A) (A) (A) (A) (A) (A) (A) (A)
                 (A) (A) (A) (A) (A) (A) (A) (A) (A) (A) (A) (A)
                 (A) (A) (A) (A) (A) (A) (A) (A) (A) (A) (A) (A)
                 (A) (A) (A) (A) (A) (A) (A) (A) (A) (A) (A) (A)
                 (A) (A) (A) (A) (A) (A) (A) (A) (A) (A) (A) (A)
                 (A) (A) (A) (A) (A) (A) (A) (A) (A) (A) (A) (A)
                 (A) (A) (A) (A) (A) (A) (A) (A) (A) (A) (A) (A)
                 (A) (A) (A) (A) (A) (A) (A) (A) (A) (A) (A) (A)
                 (A) (A) (A) (A) (A) (A) (A) (A) (A) (A) (A) (A)
                 (A) (A) (A) (A) (A) (A) (A) (A) (A) (A) (A) (A)
                 (A) (A) (A) (A) (A) (A) (A) (A) (A) (A) (A) (A)
                 (A) (A) (A) (A) (A) (A) (A) (A) (A) (A) (A) (A)
                 (A) (A) (A) (A) (A) (A) (A) (A) (A) (A) (A)
 The electronic state is 1-A.
 Alpha  occ. eigenvalues -- -101.56786-101.55486 -10.25613 -10.24288 -10.21690
 Alpha  occ. eigenvalues --  -10.20349 -10.20342 -10.19863 -10.19805 -10.19691
 Alpha  occ. eigenvalues --  -10.19323 -10.19241 -10.18811 -10.16771  -9.48586
 Alpha  occ. eigenvalues --   -9.46933  -7.24976  -7.24042  -7.24027  -7.23388
 Alpha  occ. eigenvalues --   -7.22421  -7.22386  -0.92173  -0.89242  -0.86197
 Alpha  occ. eigenvalues --   -0.84425  -0.78541  -0.76445  -0.75804  -0.72984
 Alpha  occ. eigenvalues --   -0.64992  -0.62836  -0.61954  -0.59987  -0.54605
 Alpha  occ. eigenvalues --   -0.52162  -0.50150  -0.49084  -0.47901  -0.46097
 Alpha  occ. eigenvalues --   -0.45031  -0.44519  -0.44114  -0.42377  -0.39918
 Alpha  occ. eigenvalues --   -0.39620  -0.38974  -0.37661  -0.36359  -0.35745
 Alpha  occ. eigenvalues --   -0.34369  -0.32012  -0.29089  -0.27828  -0.27063
 Alpha  occ. eigenvalues --   -0.26748  -0.23815
 Alpha virt. eigenvalues --   -0.05908  -0.04324  -0.02447  -0.01153  -0.00350
 Alpha virt. eigenvalues --    0.00114   0.00872   0.01473   0.01895   0.02996
 Alpha virt. eigenvalues --    0.03428   0.04187   0.04812   0.05222   0.06170
 Alpha virt. eigenvalues --    0.06470   0.06613   0.06816   0.08058   0.08206
 Alpha virt. eigenvalues --    0.08471   0.09742   0.09860   0.10385   0.10967
 Alpha virt. eigenvalues --    0.11193   0.12171   0.12212   0.12548   0.13644
 Alpha virt. eigenvalues --    0.14015   0.14137   0.14268   0.15229   0.15477
 Alpha virt. eigenvalues --    0.15719   0.15992   0.16397   0.17407   0.17448
 Alpha virt. eigenvalues --    0.18328   0.18482   0.18558   0.19150   0.19521
 Alpha virt. eigenvalues --    0.20108   0.20210   0.20463   0.20614   0.20806
 Alpha virt. eigenvalues --    0.21100   0.21426   0.22318   0.23120   0.23249
 Alpha virt. eigenvalues --    0.23588   0.24025   0.24627   0.25314   0.26415
 Alpha virt. eigenvalues --    0.26825   0.27161   0.27827   0.28320   0.28666
 Alpha virt. eigenvalues --    0.29105   0.29874   0.30640   0.31348   0.32415
 Alpha virt. eigenvalues --    0.33340   0.34105   0.34630   0.36134   0.36911
 Alpha virt. eigenvalues --    0.37848   0.40533   0.42136   0.43367   0.43572
 Alpha virt. eigenvalues --    0.44775   0.45917   0.46600   0.47348   0.49455
 Alpha virt. eigenvalues --    0.50303   0.51046   0.52066   0.52083   0.53091
 Alpha virt. eigenvalues --    0.53461   0.54030   0.54147   0.55489   0.56073
 Alpha virt. eigenvalues --    0.57054   0.57545   0.57850   0.58494   0.59705
 Alpha virt. eigenvalues --    0.60245   0.61707   0.62362   0.63226   0.63818
 Alpha virt. eigenvalues --    0.64786   0.66007   0.67039   0.67049   0.67930
 Alpha virt. eigenvalues --    0.68076   0.69093   0.69824   0.70123   0.71024
 Alpha virt. eigenvalues --    0.73471   0.76043   0.77332   0.80176   0.81060
 Alpha virt. eigenvalues --    0.81073   0.81969   0.81973   0.83428   0.83896
 Alpha virt. eigenvalues --    0.84324   0.84799   0.85908   0.86453   0.87069
 Alpha virt. eigenvalues --    0.87874   0.89178   0.89554   0.90173   0.91571
 Alpha virt. eigenvalues --    0.92361   0.94199   0.94502   0.94635   0.95217
 Alpha virt. eigenvalues --    0.96691   0.96736   0.97641   0.99271   1.00697
 Alpha virt. eigenvalues --    1.01186   1.01783   1.02054   1.06684   1.06871
 Alpha virt. eigenvalues --    1.07505   1.07856   1.08803   1.10497   1.12088
 Alpha virt. eigenvalues --    1.13080   1.13838   1.14110   1.21137   1.22608
 Alpha virt. eigenvalues --    1.26188   1.27413   1.28793   1.29542   1.33505
 Alpha virt. eigenvalues --    1.34145   1.37170   1.45222   1.45864   1.47508
 Alpha virt. eigenvalues --    1.49095   1.51049   1.52837   1.53678   1.54760
 Alpha virt. eigenvalues --    1.55098   1.55426   1.56316   1.58167   1.60314
 Alpha virt. eigenvalues --    1.62293   1.62458   1.65180   1.66808   1.68095
 Alpha virt. eigenvalues --    1.70764   1.72185   1.73266   1.73826   1.75116
 Alpha virt. eigenvalues --    1.77618   1.81339   1.83930   1.84583   1.85987
 Alpha virt. eigenvalues --    1.87648   1.88833   1.89173   1.91290   1.93144
 Alpha virt. eigenvalues --    1.94347   1.94622   1.95233   1.97182   1.97575
 Alpha virt. eigenvalues --    1.97678   1.99209   2.01152   2.04408   2.04827
 Alpha virt. eigenvalues --    2.06760   2.07670   2.07971   2.10446   2.20330
 Alpha virt. eigenvalues --    2.23842   2.24033   2.25653   2.27271   2.27738
 Alpha virt. eigenvalues --    2.28261   2.31762   2.35640   2.36789   2.37276
 Alpha virt. eigenvalues --    2.40612   2.40940   2.43404   2.44013   2.50951
 Alpha virt. eigenvalues --    2.52049   2.53629   2.56568   2.58931   2.61667
 Alpha virt. eigenvalues --    2.62474   2.65001   2.65792   2.66318   2.68351
 Alpha virt. eigenvalues --    2.69815   2.71691   2.72460   2.73492   2.74536
 Alpha virt. eigenvalues --    2.74620   2.75137   2.76468   2.77476   2.79804
 Alpha virt. eigenvalues --    2.80287   2.82451   2.83800   2.85078   2.85761
 Alpha virt. eigenvalues --    2.86471   2.92260   2.94004   2.94065   2.97540
 Alpha virt. eigenvalues --    3.06288   3.07546   3.09712   3.11535   3.15814
 Alpha virt. eigenvalues --    3.20515   3.22181   3.24129   3.32590   3.36581
 Alpha virt. eigenvalues --    3.37598   3.41729   3.50503   3.51719   3.54328
 Alpha virt. eigenvalues --    3.59357   3.61715   3.70527   3.79705   3.86386
 Alpha virt. eigenvalues --    4.02281   4.03716   4.08094   4.14074   4.18018
 Alpha virt. eigenvalues --    4.21784   4.47834   4.80835   4.84263   9.77891
 Alpha virt. eigenvalues --    9.87380  23.48444  23.62913  23.86821  23.90054
 Alpha virt. eigenvalues --   23.92713  23.96757  24.00629  24.03303  24.05532
 Alpha virt. eigenvalues --   24.08114  24.14380  24.15542  25.82995  25.84574
 Alpha virt. eigenvalues --   26.12941  26.59462  26.65951  26.78511 215.76957
 Alpha virt. eigenvalues --  215.89663
          Condensed to atoms (all electrons):
               1          2          3          4          5          6
     1  C   10.723632  -2.017866   1.580083  -1.009972   0.159986  -2.807386
     2  C   -2.017866  25.146369 -13.720828  -2.037810   0.141580  -1.206837
     3  C    1.580083 -13.720828  22.543527   1.191775   1.760576  -2.521647
     4  C   -1.009972  -2.037810   1.191775   6.755731   0.120405   0.839274
     5  C    0.159986   0.141580   1.760576   0.120405  11.137841  -4.509392
     6  C   -2.807386  -1.206837  -2.521647   0.839274  -4.509392  15.137883
     7  C    2.989033   0.145010  -2.749845  -0.269193  -0.672124  -0.814997
     8  C   -0.454826   2.984548  -0.279044  -0.002103   0.837428  -2.764425
     9  C   -0.901842   0.975868   0.696151   0.020852   0.112816  -0.919388
    10  C   -0.781386  -0.240242  -0.339707   0.013748  -0.263986  -0.016403
    11  C   -0.208212  -0.867926   0.240870  -0.020196  -0.430912   0.205587
    12  C   -1.728618  -2.858786  -1.300209   0.319853  -2.247843   4.491510
    13  H    0.062670   0.000745   0.375451  -0.054519  -0.031515   0.001695
    14  H    0.026557  -0.017005  -0.008894   0.371555  -0.017597  -0.009893
    15  H    0.019589   0.006869  -0.041389   0.018813   0.327241   0.001440
    16  H    0.039908  -0.067807  -0.004026  -0.002304  -0.159288   0.399382
    17  H   -0.090566   0.078316   0.251670   0.022769  -0.005804  -0.039148
    18  H    0.015838  -0.003893  -0.004477  -0.000264   0.000830   0.003265
    19  H    0.002873   0.002217   0.000450   0.000087  -0.001098   0.003542
    20  H    0.074418   0.020805   0.011398  -0.005449   0.038752  -0.013118
    21  Cl   0.102130  -0.516104  -1.267706  -0.040651   0.029424   0.669646
    22  Cl  -0.062789  -0.030062  -0.008815   0.000395  -0.005889  -0.012223
               7          8          9         10         11         12
     1  C    2.989033  -0.454826  -0.901842  -0.781386  -0.208212  -1.728618
     2  C    0.145010   2.984548   0.975868  -0.240242  -0.867926  -2.858786
     3  C   -2.749845  -0.279044   0.696151  -0.339707   0.240870  -1.300209
     4  C   -0.269193  -0.002103   0.020852   0.013748  -0.020196   0.319853
     5  C   -0.672124   0.837428   0.112816  -0.263986  -0.430912  -2.247843
     6  C   -0.814997  -2.764425  -0.919388  -0.016403   0.205587   4.491510
     7  C   12.797121  -0.109679  -2.398837  -2.636422   0.248863  -1.121224
     8  C   -0.109679  13.123134   2.075401  -1.971238  -2.835707  -3.194515
     9  C   -2.398837   2.075401  11.128943   1.258393  -3.057937  -2.721074
    10  C   -2.636422  -1.971238   1.258393  11.955270   0.056761  -0.733607
    11  C    0.248863  -2.835707  -3.057937   0.056761  11.926320   1.098222
    12  C   -1.121224  -3.194515  -2.721074  -0.733607   1.098222  15.567377
    13  H    0.010022   0.000036  -0.001044   0.000050  -0.000128   0.001562
    14  H    0.001794  -0.000675  -0.000001   0.000016   0.000273   0.002112
    15  H    0.003368  -0.001148  -0.000152   0.000106   0.000652   0.012990
    16  H    0.015069  -0.019136  -0.001624   0.003307   0.036042   0.084371
    17  H   -0.232135   0.484877   0.101589  -0.022174  -0.026729  -0.057131
    18  H    0.059204  -0.060205   0.287815   0.020746   0.040509  -0.000713
    19  H    0.037578   0.002213   0.036057   0.037010   0.378299  -0.142897
    20  H    0.074808  -0.016041  -0.019644  -0.041751  -0.066503   0.262041
    21  Cl   0.649499  -0.884258  -0.675062  -0.029440   0.014281   0.402530
    22  Cl  -0.303092   0.072207   0.296866  -1.006580  -0.031342   0.269591
              13         14         15         16         17         18
     1  C    0.062670   0.026557   0.019589   0.039908  -0.090566   0.015838
     2  C    0.000745  -0.017005   0.006869  -0.067807   0.078316  -0.003893
     3  C    0.375451  -0.008894  -0.041389  -0.004026   0.251670  -0.004477
     4  C   -0.054519   0.371555   0.018813  -0.002304   0.022769  -0.000264
     5  C   -0.031515  -0.017597   0.327241  -0.159288  -0.005804   0.000830
     6  C    0.001695  -0.009893   0.001440   0.399382  -0.039148   0.003265
     7  C    0.010022   0.001794   0.003368   0.015069  -0.232135   0.059204
     8  C    0.000036  -0.000675  -0.001148  -0.019136   0.484877  -0.060205
     9  C   -0.001044  -0.000001  -0.000152  -0.001624   0.101589   0.287815
    10  C    0.000050   0.000016   0.000106   0.003307  -0.022174   0.020746
    11  C   -0.000128   0.000273   0.000652   0.036042  -0.026729   0.040509
    12  C    0.001562   0.002112   0.012990   0.084371  -0.057131  -0.000713
    13  H    0.513550  -0.007454  -0.000238   0.000078  -0.000032   0.000000
    14  H   -0.007454   0.530147  -0.007398  -0.000289  -0.000002  -0.000000
    15  H   -0.000238  -0.007398   0.534406  -0.006957  -0.000000   0.000000
    16  H    0.000078  -0.000289  -0.006957   0.557072  -0.000079   0.000000
    17  H   -0.000032  -0.000002  -0.000000  -0.000079   0.704302  -0.014989
    18  H    0.000000  -0.000000   0.000000   0.000000  -0.014989   0.530560
    19  H    0.000000  -0.000000   0.000000   0.000038   0.000119  -0.000373
    20  H    0.000001  -0.000001   0.000002   0.001414  -0.000264   0.000102
    21  Cl  -0.018022   0.002371   0.000633  -0.000570  -0.288920   0.003240
    22  Cl  -0.000000   0.000000  -0.000000   0.000000   0.000383  -0.013715
              19         20         21         22
     1  C    0.002873   0.074418   0.102130  -0.062789
     2  C    0.002217   0.020805  -0.516104  -0.030062
     3  C    0.000450   0.011398  -1.267706  -0.008815
     4  C    0.000087  -0.005449  -0.040651   0.000395
     5  C   -0.001098   0.038752   0.029424  -0.005889
     6  C    0.003542  -0.013118   0.669646  -0.012223
     7  C    0.037578   0.074808   0.649499  -0.303092
     8  C    0.002213  -0.016041  -0.884258   0.072207
     9  C    0.036057  -0.019644  -0.675062   0.296866
    10  C    0.037010  -0.041751  -0.029440  -1.006580
    11  C    0.378299  -0.066503   0.014281  -0.031342
    12  C   -0.142897   0.262041   0.402530   0.269591
    13  H    0.000000   0.000001  -0.018022  -0.000000
    14  H   -0.000000  -0.000001   0.002371   0.000000
    15  H    0.000000   0.000002   0.000633  -0.000000
    16  H    0.000038   0.001414  -0.000570   0.000000
    17  H    0.000119  -0.000264  -0.288920   0.000383
    18  H   -0.000373   0.000102   0.003240  -0.013715
    19  H    0.519358  -0.007972  -0.000159  -0.010730
    20  H   -0.007972   0.565730   0.000053  -0.000442
    21  Cl  -0.000159   0.000053  18.227112  -0.000032
    22  Cl  -0.010730  -0.000442  -0.000032  17.437559
 Mulliken charges:
               1
     1  C    0.266748
     2  C    0.082839
     3  C   -0.405365
     4  C   -0.232796
     5  C   -0.321430
     6  C   -0.118368
     7  C    0.276180
     8  C   -0.986844
     9  C   -0.294147
    10  C    0.737532
    11  C   -0.701087
    12  C   -0.405542
    13  H    0.147092
    14  H    0.134386
    15  H    0.131172
    16  H    0.125397
    17  H    0.133950
    18  H    0.136520
    19  H    0.143388
    20  H    0.121662
    21  Cl   0.620003
    22  Cl   0.408710
 Sum of Mulliken charges =  -0.00000
 Mulliken charges with hydrogens summed into heavy atoms:
               1
     1  C    0.266748
     2  C    0.082839
     3  C   -0.258272
     4  C   -0.098410
     5  C   -0.190258
     6  C    0.007029
     7  C    0.276180
     8  C   -0.852894
     9  C   -0.157627
    10  C    0.737532
    11  C   -0.557699
    12  C   -0.283881
    21  Cl   0.620003
    22  Cl   0.408710
 Electronic spatial extent (au):  <R**2>=           4248.6856
 Charge=             -0.0000 electrons
 Dipole moment (field-independent basis, Debye):
    X=              2.9594    Y=             -1.2757    Z=             -0.0000  Tot=              3.2227
 Quadrupole moment (field-independent basis, Debye-Ang):
   XX=            -93.7818   YY=            -86.3596   ZZ=           -101.0933
   XY=             -2.6452   XZ=             -0.0000   YZ=              0.0000
 Traceless Quadrupole moment (field-independent basis, Debye-Ang):
   XX=             -0.0369   YY=              7.3853   ZZ=             -7.3484
   XY=             -2.6452   XZ=             -0.0000   YZ=              0.0000
 Octapole moment (field-independent basis, Debye-Ang**2):
  XXX=             79.6882  YYY=             -4.5280  ZZZ=             -0.0000  XYY=             -5.4085
  XXY=             -4.5863  XXZ=             -0.0001  XZZ=             -9.1979  YZZ=              7.2566
  YYZ=             -0.0000  XYZ=             -0.0001
 Hexadecapole moment (field-independent basis, Debye-Ang**3):
 XXXX=          -4408.0577 YYYY=          -1012.0216 ZZZZ=           -120.1311 XXXY=            -14.1245
 XXXZ=             -0.0002 YYYX=            -21.0527 YYYZ=              0.0000 ZZZX=              0.0001
 ZZZY=             -0.0000 XXYY=           -890.2349 XXZZ=           -838.0542 YYZZ=           -217.1134
 XXYZ=              0.0001 YYXZ=              0.0001 ZZXY=             10.8950
 N-N= 9.740606680003D+02 E-N=-5.207818914261D+03  KE= 1.378633642176D+03
 Calling FoFJK, ICntrl=      2127 FMM=F ISym2X=0 I1Cent= 0 IOpClX= 0 NMat=1 NMatS=1 NMatT=0.
 ***** Axes restored to original set *****
 -------------------------------------------------------------------
 Center     Atomic                   Forces (Hartrees/Bohr)
 Number     Number              X              Y              Z
 -------------------------------------------------------------------
      1        6          -0.019625159   -0.038570641   -0.000778419
      2        6          -0.005839548    0.018384782    0.005376799
      3        6          -0.009297524   -0.001809881    0.002723327
      4        6          -0.009259520   -0.016310883   -0.000012990
      5        6           0.003988561   -0.015729798   -0.004268186
      6        6           0.023620401    0.012275794   -0.005476312
      7        6           0.014393888    0.027419719    0.000407670
      8        6          -0.048608817   -0.030003168    0.010379576
      9        6          -0.013291924    0.011528876    0.006544269
     10        6           0.008361490    0.009300380   -0.001007992
     11        6           0.010539960    0.002638871   -0.002976721
     12        6           0.004047037   -0.022120601   -0.005487862
     13        1           0.008745013   -0.000782913   -0.003028112
     14        1           0.005777152    0.007356346   -0.000521713
     15        1          -0.004417963    0.008093333    0.002975568
     16        1          -0.005969052    0.001608395    0.002268547
     17        1          -0.040893166   -0.027994910    0.008214512
     18        1           0.003724392   -0.008289634   -0.002783864
     19        1          -0.008741186   -0.000721346    0.002744300
     20        1          -0.006973074    0.003298527    0.002916823
     21       17           0.089502669    0.058800489   -0.018443687
     22       17           0.000216371    0.001628263    0.000234468
 -------------------------------------------------------------------
 Cartesian Forces:  Max     0.089502669 RMS     0.019122694

 GradGradGradGradGradGradGradGradGradGradGradGradGradGradGradGradGradGrad
 Berny optimization.
 FormGI is forming the generalized inverse of G from B-inverse, IUseBI=4.
 Internal  Forces:  Max     0.279040339 RMS     0.050893804
 Search for a local minimum.
 Step number   1 out of a maximum of  121
 All quantities printed in internal units (Hartrees-Bohrs-Radians)
 Mixed Optimization -- RFO/linear search
 Second derivative matrix not updated -- first step.
 ITU=  0
     Eigenvalues ---    0.00237   0.01506   0.01506   0.02070   0.02070
     Eigenvalues ---    0.02070   0.02070   0.02070   0.02070   0.02070
     Eigenvalues ---    0.02070   0.02070   0.02070   0.02070   0.02070
     Eigenvalues ---    0.02070   0.02070   0.02070   0.02070   0.16000
     Eigenvalues ---    0.16000   0.16000   0.16000   0.16000   0.16000
     Eigenvalues ---    0.16000   0.16000   0.22000   0.22000   0.22493
     Eigenvalues ---    0.22981   0.24000   0.24487   0.25000   0.25000
     Eigenvalues ---    0.25000   0.25000   0.28519   0.29539   0.29539
     Eigenvalues ---    0.37230   0.37230   0.37230   0.37230   0.37230
     Eigenvalues ---    0.37230   0.37230   0.37230   0.41268   0.41369
     Eigenvalues ---    0.41539   0.41640   0.45389   0.45389   0.45389
     Eigenvalues ---    0.45389   0.45389   0.45389   0.45389   0.45389
 RFO step:  Lambda=-4.21299009D-01 EMin= 2.36824309D-03
 Linear search not attempted -- first point.
 Maximum step size (   0.300) exceeded in Quadratic search.
    -- Step size scaled by   0.381
 Iteration  1 RMS(Cart)=  0.19347978 RMS(Int)=  0.00987221
 Iteration  2 RMS(Cart)=  0.03521147 RMS(Int)=  0.00030433
 Iteration  3 RMS(Cart)=  0.00056338 RMS(Int)=  0.00004739
 Iteration  4 RMS(Cart)=  0.00000019 RMS(Int)=  0.00004739
 Variable       Old X    -DE/DX   Delta X   Delta X   Delta X     New X
                                 (Linear)    (Quad)   (Total)
    R1        2.64826   0.12089   0.00000   0.05383   0.05391   2.70217
    R2        2.64826   0.02035   0.00000   0.00950   0.00960   2.65787
    R3        2.91018   0.06784   0.00000   0.03660   0.03660   2.94677
    R4        2.64826   0.00334   0.00000   0.00201   0.00198   2.65024
    R5        3.32592  -0.00399   0.00000  -0.00212  -0.00212   3.32380
    R6        2.64826  -0.03029   0.00000  -0.01383  -0.01393   2.63433
    R7        2.02201   0.00923   0.00000   0.00443   0.00443   2.02644
    R8        2.64826  -0.03948   0.00000  -0.01838  -0.01846   2.62980
    R9        2.02201   0.00927   0.00000   0.00445   0.00445   2.02646
   R10        2.64826  -0.02215   0.00000  -0.01019  -0.01017   2.63809
   R11        2.02201   0.00969   0.00000   0.00465   0.00465   2.02666
   R12        2.02201   0.00634   0.00000   0.00305   0.00305   2.02505
   R13        2.64826   0.01760   0.00000   0.00804   0.00809   2.65635
   R14        2.64826   0.01750   0.00000   0.00791   0.00795   2.65621
   R15        2.64826  -0.00104   0.00000  -0.00036  -0.00036   2.64790
   R16        2.02201  -0.04202   0.00000  -0.02018  -0.02018   2.00183
   R17        2.64826  -0.02556   0.00000  -0.01142  -0.01146   2.63680
   R18        2.02201   0.00949   0.00000   0.00456   0.00456   2.02656
   R19        2.64826  -0.02761   0.00000  -0.01240  -0.01245   2.63581
   R20        3.32592  -0.00151   0.00000  -0.00080  -0.00080   3.32511
   R21        2.64826  -0.01324   0.00000  -0.00586  -0.00586   2.64240
   R22        2.02201   0.00917   0.00000   0.00441   0.00441   2.02641
   R23        2.02201   0.00677   0.00000   0.00325   0.00325   2.02526
    A1        2.09440  -0.07894   0.00000  -0.04274  -0.04255   2.05185
    A2        2.09440   0.27904   0.00000   0.15737   0.15727   2.25167
    A3        2.09440  -0.20010   0.00000  -0.11463  -0.11473   1.97967
    A4        2.09440  -0.01260   0.00000  -0.00519  -0.00514   2.08925
    A5        2.09440   0.18689   0.00000   0.10511   0.10509   2.19948
    A6        2.09440  -0.17429   0.00000  -0.09992  -0.09995   1.99445
    A7        2.09440   0.03783   0.00000   0.02198   0.02185   2.11625
    A8        2.09440  -0.01992   0.00000  -0.01165  -0.01159   2.08281
    A9        2.09440  -0.01791   0.00000  -0.01033  -0.01027   2.08413
   A10        2.09440  -0.00657   0.00000  -0.00683  -0.00701   2.08738
   A11        2.09440   0.00191   0.00000   0.00251   0.00261   2.09700
   A12        2.09440   0.00466   0.00000   0.00431   0.00441   2.09880
   A13        2.09440   0.00156   0.00000  -0.00187  -0.00192   2.09247
   A14        2.09440  -0.00066   0.00000   0.00101   0.00104   2.09544
   A15        2.09440  -0.00090   0.00000   0.00086   0.00088   2.09528
   A16        2.09440   0.05871   0.00000   0.03464   0.03477   2.12917
   A17        2.09440  -0.02757   0.00000  -0.01615  -0.01621   2.07818
   A18        2.09440  -0.03115   0.00000  -0.01849  -0.01856   2.07584
   A19        2.09440   0.19350   0.00000   0.10956   0.10951   2.20391
   A20        2.09440  -0.13059   0.00000  -0.07442  -0.07447   2.01993
   A21        2.09440  -0.06291   0.00000  -0.03513  -0.03504   2.05935
   A22        2.09440   0.02194   0.00000   0.01338   0.01342   2.10781
   A23        2.09440   0.01687   0.00000   0.01156   0.01154   2.10593
   A24        2.09440  -0.03881   0.00000  -0.02494  -0.02496   2.06944
   A25        2.09440   0.01061   0.00000   0.00573   0.00567   2.10007
   A26        2.09440  -0.00470   0.00000  -0.00247  -0.00244   2.09195
   A27        2.09440  -0.00591   0.00000  -0.00326  -0.00323   2.09116
   A28        2.09440  -0.00799   0.00000  -0.00572  -0.00581   2.08858
   A29        2.09440   0.00512   0.00000   0.00350   0.00355   2.09794
   A30        2.09440   0.00286   0.00000   0.00222   0.00227   2.09666
   A31        2.09440  -0.00122   0.00000  -0.00170  -0.00174   2.09265
   A32        2.09440   0.00007   0.00000   0.00050   0.00052   2.09491
   A33        2.09440   0.00115   0.00000   0.00121   0.00123   2.09562
   A34        2.09440   0.03956   0.00000   0.02345   0.02351   2.11790
   A35        2.09440  -0.01502   0.00000  -0.00861  -0.00863   2.08576
   A36        2.09440  -0.02454   0.00000  -0.01485  -0.01487   2.07952
    D1        0.00000  -0.00000   0.00000  -0.00000  -0.00000   0.00000
    D2        3.14159  -0.00000   0.00000  -0.00000  -0.00000   3.14159
    D3       -3.14159  -0.00000   0.00000  -0.00000  -0.00000  -3.14159
    D4       -0.00000  -0.00000   0.00000  -0.00000  -0.00000  -0.00000
    D5       -0.00000   0.00000   0.00000   0.00000   0.00000  -0.00000
    D6        3.14159   0.00000   0.00000   0.00000   0.00000   3.14159
    D7        3.14159  -0.00000   0.00000  -0.00000  -0.00000   3.14159
    D8        0.00000  -0.00000   0.00000  -0.00000  -0.00000  -0.00000
    D9       -0.00000  -0.00000   0.00000  -0.00000  -0.00000  -0.00000
   D10        3.14159  -0.00000   0.00000  -0.00000  -0.00000   3.14159
   D11        3.14159  -0.00000   0.00000  -0.00000  -0.00000   3.14159
   D12       -0.00000  -0.00000   0.00000  -0.00000  -0.00000  -0.00000
   D13        0.00000  -0.00000   0.00000   0.00000   0.00000   0.00000
   D14        3.14159   0.00000   0.00000   0.00000   0.00000   3.14159
   D15       -3.14159  -0.00000   0.00000  -0.00000  -0.00000  -3.14159
   D16        0.00000  -0.00000   0.00000  -0.00000  -0.00000   0.00000
   D17       -0.00000   0.00000   0.00000   0.00000   0.00000  -0.00000
   D18        3.14159   0.00000   0.00000  -0.00000  -0.00000   3.14159
   D19        3.14159  -0.00000   0.00000  -0.00000  -0.00000   3.14159
   D20        0.00000  -0.00000   0.00000  -0.00000  -0.00000   0.00000
   D21        0.00000  -0.00000   0.00000  -0.00000  -0.00000   0.00000
   D22       -3.14159  -0.00000   0.00000  -0.00000  -0.00000  -3.14159
   D23       -3.14159  -0.00000   0.00000  -0.00000  -0.00000  -3.14159
   D24        0.00000  -0.00000   0.00000  -0.00000  -0.00000   0.00000
   D25       -0.00000   0.00000   0.00000   0.00000   0.00000  -0.00000
   D26        3.14159   0.00000   0.00000   0.00000   0.00000   3.14159
   D27        3.14159   0.00000   0.00000   0.00000   0.00000   3.14159
   D28       -0.00000   0.00000   0.00000   0.00000   0.00000  -0.00000
   D29        3.14159  -0.00000   0.00000   0.00000   0.00000   3.14159
   D30        0.00000  -0.00000   0.00000  -0.00000  -0.00000   0.00000
   D31        0.00000  -0.00000   0.00000  -0.00000  -0.00000   0.00000
   D32       -3.14159  -0.00000   0.00000  -0.00000  -0.00000  -3.14159
   D33       -3.14159  -0.00000   0.00000  -0.00000  -0.00000  -3.14159
   D34        0.00000  -0.00000   0.00000  -0.00000  -0.00000   0.00000
   D35       -0.00000   0.00000   0.00000   0.00000   0.00000  -0.00000
   D36        3.14159   0.00000   0.00000   0.00000   0.00000   3.14159
   D37       -0.00000  -0.00000   0.00000  -0.00000  -0.00000  -0.00000
   D38        3.14159  -0.00000   0.00000  -0.00000  -0.00000   3.14159
   D39        3.14159   0.00000   0.00000   0.00000   0.00000   3.14159
   D40       -0.00000   0.00000   0.00000   0.00000   0.00000  -0.00000
   D41       -0.00000   0.00000   0.00000   0.00000   0.00000  -0.00000
   D42       -3.14159  -0.00000   0.00000  -0.00000  -0.00000  -3.14159
   D43        3.14159   0.00000   0.00000   0.00000   0.00000   3.14159
   D44        0.00000  -0.00000   0.00000  -0.00000  -0.00000   0.00000
   D45        0.00000   0.00000   0.00000  -0.00000  -0.00000   0.00000
   D46       -3.14159  -0.00000   0.00000  -0.00000  -0.00000  -3.14159
   D47        3.14159   0.00000   0.00000   0.00000   0.00000   3.14159
   D48        0.00000  -0.00000   0.00000  -0.00000  -0.00000   0.00000
   D49        0.00000  -0.00000   0.00000  -0.00000  -0.00000   0.00000
   D50       -3.14159  -0.00000   0.00000  -0.00000  -0.00000  -3.14159
   D51        3.14159   0.00000   0.00000   0.00000   0.00000   3.14159
   D52       -0.00000  -0.00000   0.00000   0.00000   0.00000  -0.00000
         Item               Value     Threshold  Converged?
 Maximum Force            0.279040     0.000450     NO 
 RMS     Force            0.050894     0.000300     NO 
 Maximum Displacement     0.977836     0.001800     NO 
 RMS     Displacement     0.224039     0.001200     NO 
 Predicted change in Energy=-1.489155D-01
 GradGradGradGradGradGradGradGradGradGradGradGradGradGradGradGradGradGrad

                          Input orientation:                          
 ---------------------------------------------------------------------
 Center     Atomic      Atomic             Coordinates (Angstroms)
 Number     Number       Type             X           Y           Z
 ---------------------------------------------------------------------
      1          6           0       -1.665680   -0.739558    0.033315
      2          6           0       -0.312076   -0.518460   -0.371112
      3          6           0        0.230189    0.773328   -0.307153
      4          6           0       -0.526101    1.853601    0.144896
      5          6           0       -1.844673    1.651557    0.541359
      6          6           0       -2.400080    0.372062    0.484038
      7          6           0       -2.479868   -2.069362    0.051804
      8          6           0       -2.012847   -3.335995   -0.339945
      9          6           0       -2.847998   -4.459290   -0.275764
     10          6           0       -4.161010   -4.335861    0.180000
     11          6           0       -4.640889   -3.086473    0.572747
     12          6           0       -3.805520   -1.967018    0.507772
     13          1           0        1.245934    0.932413   -0.611917
     14          1           0       -0.093606    2.833988    0.186536
     15          1           0       -2.433239    2.477369    0.890358
     16          1           0       -3.416820    0.233858    0.793052
     17          1           0       -1.021032   -3.461468   -0.690268
     18          1           0       -2.476585   -5.418755   -0.578325
     19          1           0       -5.648983   -2.984961    0.923939
     20          1           0       -4.186688   -1.012865    0.812552
     21         17           0        0.802096   -1.741620   -0.967899
     22         17           0       -5.206980   -5.748575    0.259284
 ---------------------------------------------------------------------
                    Distance matrix (angstroms):
                    1          2          3          4          5
     1  C    0.000000
     2  C    1.429927   0.000000
     3  C    2.449298   1.402447   0.000000
     4  C    2.834707   2.436954   1.394027   0.000000
     5  C    2.451037   2.808992   2.407553   1.391631   0.000000
     6  C    1.406483   2.425711   2.775844   2.412834   1.396020
     7  C    1.559366   2.698792   3.943874   4.383549   3.806360
     8  C    2.646003   3.291215   4.681754   5.420091   5.067608
     9  C    3.915330   4.687231   6.070956   6.739492   6.246343
    10  C    4.379678   5.448905   6.754536   7.177968   6.430021
    11  C    3.827645   5.120955   6.276917   6.443513   5.501703
    12  C    2.512107   3.882642   4.945760   5.048108   4.115839
    13  H    3.418963   2.142526   1.072346   2.135758   3.376250
    14  H    3.907062   3.405527   2.143570   1.072355   2.142494
    15  H    3.416473   3.881447   3.381070   2.140555   1.072462
    16  H    2.142716   3.400103   3.847357   3.376378   2.131870
    17  H    2.889279   3.043973   4.432361   5.403000   5.323374
    18  H    4.788168   5.361057   6.763287   7.564033   7.186259
    19  H    4.658514   6.020246   7.085548   7.089606   6.009696
    20  H    2.652807   4.081435   4.894183   4.697051   3.557770
    21  Cl   2.845431   1.758879   2.662448   3.990994   4.560362
    22  Cl   6.138576   7.191077   8.509928   8.928426   8.133058
                    6          7          8          9         10
     6  C    0.000000
     7  C    2.480674   0.000000
     8  C    3.818191   1.405680   0.000000
     9  C    4.911201   2.440200   1.401210   0.000000
    10  C    5.035658   2.824835   2.425836   1.395334   0.000000
    11  C    4.121961   2.444567   2.793183   2.412272   1.394813
    12  C    2.728941   1.405608   2.409647   2.782481   2.417690
    13  H    3.848185   4.830402   5.377074   6.778181   7.590579
    14  H    3.386652   5.454837   6.483006   7.809757   8.243213
    15  H    2.144414   4.623646   5.956976   7.046212   7.064694
    16  H    1.071612   2.594639   3.999834   4.846810   4.670330
    17  H    4.239896   2.148681   1.059323   2.122561   3.373631
    18  H    5.887956   3.408153   2.147037   1.072410   2.141263
    19  H    4.692386   3.412072   3.865503   3.385034   2.142998
    20  H    2.284275   2.146662   3.383898   3.854136   3.382762
    21  Cl   4.102402   3.452318   3.295491   4.603039   5.716658
    22  Cl   6.737314   4.584408   4.047481   2.741045   1.759574
                   11         12         13         14         15
    11  C    0.000000
    12  C    1.398300   0.000000
    13  H    7.225618   5.931070   0.000000
    14  H    7.475213   6.077101   2.459244   0.000000
    15  H    5.994241   4.667129   4.263804   2.469094   0.000000
    16  H    3.545628   2.253070   4.919674   4.262897   2.451579
    17  H    3.852167   3.379653   4.944842   6.423525   6.305750
    18  H    3.383596   3.854889   7.361767   8.623884   8.031667
    19  H    1.072331   2.146570   8.077410   8.078747   6.338705
    20  H    2.136271   1.071721   5.943618   5.651858   3.906708
    21  Cl   5.814491   4.843401   2.733893   4.803249   5.632085
    22  Cl   2.739618   4.040546   9.329239   9.990610   8.703910
                   16         17         18         19         20
    16  H    0.000000
    17  H    4.647093   0.000000
    18  H    5.892093   2.441749   0.000000
    19  H    3.919245   4.924495   4.271330   0.000000
    20  H    1.465399   4.274985   4.926546   2.457616   0.000000
    21  Cl   4.980233   2.521656   4.941947   6.836766   5.346873
    22  Cl   6.267303   4.863606   2.874965   2.876578   4.875864
                   21         22
    21  Cl   0.000000
    22  Cl   7.326026   0.000000
 Stoichiometry    C12H8Cl2
 Framework group  C1[X(C12H8Cl2)]
 Deg. of freedom    60
 Full point group                 C1      NOp   1
 Largest Abelian subgroup         C1      NOp   1
 Largest concise Abelian subgroup C1      NOp   1
                         Standard orientation:                         
 ---------------------------------------------------------------------
 Center     Atomic      Atomic             Coordinates (Angstroms)
 Number     Number       Type             X           Y           Z
 ---------------------------------------------------------------------
      1          6           0        1.322401   -0.397062    0.000002
      2          6           0        2.365168    0.581369    0.000000
      3          6           0        3.705490    0.168579   -0.000001
      4          6           0        4.045906   -1.183246   -0.000002
      5          6           0        3.040349   -2.145271    0.000001
      6          6           0        1.700975   -1.751638    0.000002
      7          6           0       -0.222493   -0.185109    0.000003
      8          6           0       -0.892417    1.050665    0.000004
      9          6           0       -2.292491    1.107054    0.000004
     10          6           0       -3.044901   -0.068036    0.000001
     11          6           0       -2.396495   -1.302975   -0.000001
     12          6           0       -0.999224   -1.356614   -0.000001
     13          1           0        4.482748    0.907359   -0.000003
     14          1           0        5.076643   -1.479096   -0.000004
     15          1           0        3.293856   -3.187340    0.000002
     16          1           0        0.939086   -2.505213    0.000004
     17          1           0       -0.348785    1.959857    0.000004
     18          1           0       -2.788568    2.057828    0.000005
     19          1           0       -2.969001   -2.209690   -0.000006
     20          1           0       -0.513514   -2.311952   -0.000004
     21         17           0        2.146067    2.326548   -0.000002
     22         17           0       -4.802895    0.006508   -0.000002
 ---------------------------------------------------------------------
 Rotational constants (GHZ):           1.2245467           0.2655635           0.2182355
 Standard basis: 6-311+G(d,p) (5D, 7F)
 There are   386 symmetry adapted cartesian basis functions of A   symmetry.
 There are   372 symmetry adapted basis functions of A   symmetry.
   372 basis functions,   602 primitive gaussians,   386 cartesian basis functions
    57 alpha electrons       57 beta electrons
       nuclear repulsion energy       955.2382388746 Hartrees.
 NAtoms=   22 NActive=   22 NUniq=   22 SFac= 1.00D+00 NAtFMM=   60 NAOKFM=F Big=F
 Integral buffers will be    131072 words long.
 Raffenetti 2 integral format.
 Two-electron integral symmetry is turned on.
 One-electron integrals computed using PRISM.
 NBasis=   372 RedAO= T EigKep=  1.12D-06  NBF=   372
 NBsUse=   368 1.00D-06 EigRej=  8.39D-07 NBFU=   368
 Initial guess from the checkpoint file:  "/scratch/pkc/Gau-2937.chk"
 B after Tr=     0.000000   -0.000000    0.000000
         Rot=    0.999417    0.000000    0.000000    0.034145 Ang=   3.91 deg.
 ExpMin= 4.38D-02 ExpMax= 1.06D+05 ExpMxC= 3.62D+03 IAcc=3 IRadAn=         5 AccDes= 0.00D+00
 Harris functional with IExCor=  402 and IRadAn=       5 diagonalized for initial guess.
 HarFok:  IExCor=  402 AccDes= 0.00D+00 IRadAn=         5 IDoV= 1 UseB2=F ITyADJ=14
 ICtDFT=  3500011 ScaDFX=  1.000000  1.000000  1.000000  1.000000
 FoFCou: FMM=F IPFlag=           0 FMFlag=      100000 FMFlg1=           0
         NFxFlg=           0 DoJE=T BraDBF=F KetDBF=T FulRan=T
         wScrn=  0.000000 ICntrl=       500 IOpCl=  0 I1Cent=   200000004 NGrid=           0
         NMat0=    1 NMatS0=      1 NMatT0=    0 NMatD0=    1 NMtDS0=    0 NMtDT0=    0
 Petite list used in FoFCou.
 Requested convergence on RMS density matrix=1.00D-08 within  32 cycles.
 Requested convergence on MAX density matrix=1.00D-06.
 Requested convergence on             energy=1.00D-06.
 No special actions if energy rises.
 SCF Done:  E(RB3LYP) =  -1382.64270644     A.U. after   16 cycles
            NFock= 16  Conv=0.85D-08     -V/T= 2.0031
 QCSCF skips out because SCF is already converged.
 Calling FoFJK, ICntrl=      2127 FMM=F ISym2X=0 I1Cent= 0 IOpClX= 0 NMat=1 NMatS=1 NMatT=0.
 ***** Axes restored to original set *****
 -------------------------------------------------------------------
 Center     Atomic                   Forces (Hartrees/Bohr)
 Number     Number              X              Y              Z
 -------------------------------------------------------------------
      1        6          -0.008154960   -0.028053547   -0.002582132
      2        6          -0.015206013    0.012326534    0.007324844
      3        6          -0.009899028   -0.001356202    0.003006687
      4        6          -0.003243841   -0.010713347   -0.000943599
      5        6           0.001957512   -0.011081304   -0.002726024
      6        6           0.023237134    0.017796584   -0.004313228
      7        6           0.014577300    0.023059146   -0.000471683
      8        6          -0.018751579    0.002477647    0.006643237
      9        6          -0.003095125    0.008407760    0.002598697
     10        6           0.006643972    0.005535308   -0.001149270
     11        6           0.008267080    0.002731355   -0.002210538
     12        6          -0.002126414   -0.025003221   -0.003995337
     13        1           0.007037631   -0.000570871   -0.002425784
     14        1           0.004280818    0.006672553   -0.000157160
     15        1          -0.004928707    0.005763679    0.002706305
     16        1           0.003244059    0.009984953    0.000806371
     17        1           0.013034555   -0.001926903   -0.004656319
     18        1           0.002786886   -0.006438739   -0.002127380
     19        1          -0.007063424    0.000619827    0.002443433
     20        1          -0.009965282   -0.008235161    0.001736548
     21       17          -0.004049898   -0.003958694    0.000590730
     22       17           0.001417326    0.001962642   -0.000098398
 -------------------------------------------------------------------
 Cartesian Forces:  Max     0.028053547 RMS     0.009032970

 GradGradGradGradGradGradGradGradGradGradGradGradGradGradGradGradGradGrad
 Berny optimization.
 Using GEDIIS/GDIIS optimizer.
 FormGI is forming the generalized inverse of G from B-inverse, IUseBI=4.
 Internal  Forces:  Max     0.063621230 RMS     0.011487642
 Search for a local minimum.
 Step number   2 out of a maximum of  121
 All quantities printed in internal units (Hartrees-Bohrs-Radians)
 Mixed Optimization -- RFO/linear search
 Update second derivatives using D2CorX and points    1    2
 DE= -3.98D-02 DEPred=-1.49D-01 R= 2.67D-01
 Trust test= 2.67D-01 RLast= 3.00D-01 DXMaxT set to 3.00D-01
 ITU=  0  0
 Use linear search instead of GDIIS.
     Eigenvalues ---    0.00237   0.01478   0.01484   0.02070   0.02070
     Eigenvalues ---    0.02070   0.02070   0.02070   0.02070   0.02070
     Eigenvalues ---    0.02070   0.02070   0.02070   0.02070   0.02070
     Eigenvalues ---    0.02070   0.02070   0.02070   0.02070   0.15970
     Eigenvalues ---    0.16000   0.16000   0.16000   0.16000   0.16000
     Eigenvalues ---    0.16000   0.16036   0.22000   0.22003   0.22526
     Eigenvalues ---    0.22935   0.23939   0.24337   0.24891   0.25000
     Eigenvalues ---    0.25000   0.28451   0.29539   0.29539   0.37070
     Eigenvalues ---    0.37178   0.37230   0.37230   0.37230   0.37230
     Eigenvalues ---    0.37230   0.37230   0.40382   0.41177   0.41265
     Eigenvalues ---    0.41675   0.45048   0.45340   0.45389   0.45389
     Eigenvalues ---    0.45389   0.45389   0.45389   0.45389   2.10655
 RFO step:  Lambda=-1.43219366D-02 EMin= 2.36824309D-03
 Quartic linear search produced a step of -0.31877.
 Iteration  1 RMS(Cart)=  0.14836294 RMS(Int)=  0.00461418
 Iteration  2 RMS(Cart)=  0.00868499 RMS(Int)=  0.00006980
 Iteration  3 RMS(Cart)=  0.00003458 RMS(Int)=  0.00006903
 Iteration  4 RMS(Cart)=  0.00000000 RMS(Int)=  0.00006903
 Variable       Old X    -DE/DX   Delta X   Delta X   Delta X     New X
                                 (Linear)    (Quad)   (Total)
    R1        2.70217  -0.01739  -0.01718   0.02059   0.00354   2.70571
    R2        2.65787   0.00954  -0.00306   0.02218   0.01921   2.67708
    R3        2.94677  -0.00572  -0.01167   0.01641   0.00475   2.95152
    R4        2.65024  -0.00724  -0.00063  -0.00943  -0.01002   2.64022
    R5        3.32380  -0.00001   0.00068  -0.00174  -0.00107   3.32273
    R6        2.63433  -0.00929   0.00444  -0.02558  -0.02123   2.61310
    R7        2.02644   0.00727  -0.00141   0.01652   0.01510   2.04155
    R8        2.62980  -0.00432   0.00588  -0.02166  -0.01592   2.61388
    R9        2.02646   0.00782  -0.00142   0.01750   0.01608   2.04254
   R10        2.63809  -0.00511   0.00324  -0.01558  -0.01238   2.62571
   R11        2.02666   0.00802  -0.00148   0.01803   0.01654   2.04320
   R12        2.02505  -0.00413  -0.00097  -0.00472  -0.00569   2.01936
   R13        2.65635  -0.00154  -0.00258   0.00500   0.00253   2.65887
   R14        2.65621   0.01036  -0.00253   0.02262   0.02015   2.67636
   R15        2.64790  -0.00818   0.00011  -0.01262  -0.01247   2.63543
   R16        2.00183   0.01397   0.00643   0.00766   0.01410   2.01593
   R17        2.63680  -0.01036   0.00365  -0.02564  -0.02205   2.61474
   R18        2.02656   0.00733  -0.00145   0.01672   0.01526   2.04183
   R19        2.63581  -0.00714   0.00397  -0.02138  -0.01751   2.61830
   R20        3.32511  -0.00242   0.00026  -0.00597  -0.00572   3.31940
   R21        2.64240  -0.00745   0.00187  -0.01544  -0.01360   2.62880
   R22        2.02641   0.00750  -0.00140   0.01690   0.01549   2.04190
   R23        2.02526  -0.00329  -0.00104  -0.00307  -0.00411   2.02115
    A1        2.05185  -0.01767   0.01356  -0.07924  -0.06543   1.98642
    A2        2.25167  -0.04595  -0.05013   0.00508  -0.04518   2.20649
    A3        1.97967   0.06362   0.03657   0.07416   0.11061   2.09028
    A4        2.08925   0.01670   0.00164   0.03712   0.03894   2.12819
    A5        2.19948  -0.01781  -0.03350   0.03736   0.00377   2.20325
    A6        1.99445   0.00112   0.03186  -0.07448  -0.04271   1.95174
    A7        2.11625  -0.00168  -0.00697   0.01030   0.00327   2.11952
    A8        2.08281  -0.00088   0.00369  -0.01231  -0.00859   2.07422
    A9        2.08413   0.00256   0.00327   0.00201   0.00531   2.08944
   A10        2.08738  -0.00460   0.00224  -0.01797  -0.01598   2.07140
   A11        2.09700   0.00098  -0.00083   0.00319   0.00248   2.09948
   A12        2.09880   0.00362  -0.00140   0.01478   0.01350   2.11230
   A13        2.09247   0.00124   0.00061   0.00434   0.00477   2.09724
   A14        2.09544   0.00007  -0.00033   0.00056   0.00032   2.09576
   A15        2.09528  -0.00130  -0.00028  -0.00490  -0.00509   2.09019
   A16        2.12917   0.00602  -0.01108   0.04546   0.03443   2.16360
   A17        2.07818   0.00680   0.00517   0.01636   0.02150   2.09969
   A18        2.07584  -0.01281   0.00592  -0.06182  -0.05593   2.01990
   A19        2.20391  -0.04248  -0.03491  -0.02432  -0.05932   2.14459
   A20        2.01993   0.05696   0.02374   0.08759   0.11124   2.13117
   A21        2.05935  -0.01448   0.01117  -0.06327  -0.05193   2.00743
   A22        2.10781   0.00993  -0.00428   0.03823   0.03409   2.14190
   A23        2.10593  -0.00468  -0.00368  -0.00540  -0.00915   2.09679
   A24        2.06944  -0.00524   0.00796  -0.03283  -0.02494   2.04450
   A25        2.10007  -0.00156  -0.00181  -0.00319  -0.00503   2.09503
   A26        2.09195   0.00050   0.00078   0.00076   0.00155   2.09351
   A27        2.09116   0.00107   0.00103   0.00244   0.00348   2.09465
   A28        2.08858   0.00148   0.00185  -0.00319  -0.00150   2.08708
   A29        2.09794  -0.00069  -0.00113   0.00223   0.00118   2.09912
   A30        2.09666  -0.00079  -0.00072   0.00096   0.00032   2.09698
   A31        2.09265   0.00044   0.00056  -0.00044  -0.00002   2.09263
   A32        2.09491  -0.00031  -0.00016  -0.00039  -0.00048   2.09443
   A33        2.09562  -0.00012  -0.00039   0.00083   0.00051   2.09613
   A34        2.11790   0.00421  -0.00749   0.03186   0.02440   2.14230
   A35        2.08576   0.01068   0.00275   0.03612   0.03885   2.12462
   A36        2.07952  -0.01488   0.00474  -0.06798  -0.06325   2.01627
    D1        0.00000  -0.00000   0.00000   0.00000   0.00000   0.00000
    D2        3.14159   0.00000   0.00000   0.00000   0.00000  -3.14159
    D3       -3.14159  -0.00000   0.00000  -0.00000  -0.00000  -3.14159
    D4       -0.00000   0.00000   0.00000   0.00000   0.00000  -0.00000
    D5       -0.00000   0.00000  -0.00000  -0.00000  -0.00000  -0.00000
    D6        3.14159  -0.00000  -0.00000  -0.00000  -0.00000   3.14159
    D7        3.14159   0.00000   0.00000   0.00000   0.00000   3.14159
    D8       -0.00000  -0.00000   0.00000  -0.00000  -0.00000  -0.00000
    D9       -0.00000  -0.00000   0.00000  -0.00000  -0.00000  -0.00001
   D10        3.14159  -0.00000   0.00000  -0.00000  -0.00000   3.14159
   D11        3.14159  -0.00000   0.00000  -0.00000  -0.00000   3.14159
   D12       -0.00000  -0.00000   0.00000  -0.00000  -0.00000  -0.00001
   D13        0.00000  -0.00000  -0.00000  -0.00000  -0.00000  -0.00000
   D14        3.14159   0.00000  -0.00000   0.00000   0.00000   3.14159
   D15       -3.14159  -0.00000   0.00000  -0.00000  -0.00000  -3.14159
   D16        0.00000  -0.00000   0.00000  -0.00000  -0.00000   0.00000
   D17       -0.00000   0.00000  -0.00000   0.00000   0.00000  -0.00000
   D18        3.14159   0.00000   0.00000   0.00000   0.00000   3.14159
   D19        3.14159   0.00000   0.00000   0.00000   0.00000   3.14159
   D20        0.00000  -0.00000   0.00000  -0.00000  -0.00000   0.00000
   D21        0.00000  -0.00000   0.00000  -0.00000  -0.00000   0.00000
   D22       -3.14159  -0.00000   0.00000  -0.00000  -0.00000  -3.14159
   D23       -3.14159  -0.00000   0.00000  -0.00000  -0.00000  -3.14159
   D24        0.00000   0.00000   0.00000   0.00000   0.00000   0.00000
   D25       -0.00000   0.00000  -0.00000   0.00000   0.00000   0.00000
   D26        3.14159   0.00000  -0.00000   0.00000   0.00000  -3.14159
   D27        3.14159   0.00000  -0.00000   0.00000   0.00000   3.14159
   D28       -0.00000   0.00000  -0.00000   0.00000   0.00000  -0.00000
   D29        3.14159   0.00000  -0.00000   0.00000   0.00000   3.14159
   D30        0.00000   0.00000   0.00000  -0.00000  -0.00000   0.00000
   D31        0.00000   0.00000   0.00000   0.00000   0.00000   0.00000
   D32       -3.14159  -0.00000   0.00000  -0.00000  -0.00000  -3.14159
   D33       -3.14159   0.00000   0.00000  -0.00000  -0.00000  -3.14159
   D34        0.00000   0.00000   0.00000  -0.00000  -0.00000  -0.00000
   D35       -0.00000  -0.00000  -0.00000  -0.00000  -0.00000  -0.00000
   D36        3.14159  -0.00000  -0.00000  -0.00000  -0.00000   3.14159
   D37       -0.00000  -0.00000   0.00000  -0.00000  -0.00000  -0.00000
   D38        3.14159  -0.00000   0.00000  -0.00000  -0.00000   3.14159
   D39        3.14159   0.00000  -0.00000   0.00000   0.00000   3.14159
   D40       -0.00000   0.00000  -0.00000   0.00000   0.00000  -0.00000
   D41       -0.00000  -0.00000  -0.00000  -0.00000  -0.00000  -0.00000
   D42       -3.14159  -0.00000   0.00000  -0.00000  -0.00000  -3.14159
   D43        3.14159   0.00000  -0.00000   0.00000   0.00000   3.14159
   D44        0.00000  -0.00000   0.00000  -0.00000  -0.00000   0.00000
   D45        0.00000   0.00000   0.00000   0.00000   0.00000   0.00000
   D46       -3.14159  -0.00000   0.00000  -0.00000  -0.00000  -3.14159
   D47        3.14159   0.00000  -0.00000   0.00000   0.00000   3.14159
   D48        0.00000  -0.00000   0.00000  -0.00000  -0.00000   0.00000
   D49        0.00000   0.00000   0.00000  -0.00000  -0.00000   0.00000
   D50       -3.14159   0.00000   0.00000  -0.00000  -0.00000  -3.14159
   D51        3.14159   0.00000  -0.00000   0.00000   0.00000   3.14159
   D52       -0.00000   0.00000  -0.00000   0.00000   0.00000  -0.00000
         Item               Value     Threshold  Converged?
 Maximum Force            0.063621     0.000450     NO 
 RMS     Force            0.011488     0.000300     NO 
 Maximum Displacement     0.567053     0.001800     NO 
 RMS     Displacement     0.151668     0.001200     NO 
 Predicted change in Energy=-9.523724D-03
 GradGradGradGradGradGradGradGradGradGradGradGradGradGradGradGradGradGrad

                          Input orientation:                          
 ---------------------------------------------------------------------
 Center     Atomic      Atomic             Coordinates (Angstroms)
 Number     Number       Type             X           Y           Z
 ---------------------------------------------------------------------
      1          6           0       -1.773078   -0.679694    0.079942
      2          6           0       -0.412607   -0.528010   -0.339782
      3          6           0        0.233219    0.710748   -0.319903
      4          6           0       -0.414401    1.854994    0.108357
      5          6           0       -1.730215    1.757182    0.523484
      6          6           0       -2.378234    0.528203    0.506164
      7          6           0       -2.594423   -2.008004    0.101070
      8          6           0       -2.059198   -3.243504   -0.307305
      9          6           0       -2.795548   -4.427701   -0.287113
     10          6           0       -4.109219   -4.419095    0.147305
     11          6           0       -4.685155   -3.228636    0.560634
     12          6           0       -3.941387   -2.053313    0.536331
     13          1           0        1.261015    0.767994   -0.647762
     14          1           0        0.103132    2.803872    0.116061
     15          1           0       -2.258248    2.637569    0.862788
     16          1           0       -3.392839    0.533930    0.841503
     17          1           0       -1.050956   -3.303181   -0.650686
     18          1           0       -2.339433   -5.352099   -0.610997
     19          1           0       -5.710513   -3.214098    0.901180
     20          1           0       -4.454495   -1.176244    0.870104
     21         17           0        0.642479   -1.805968   -0.927392
     22         17           0       -5.042349   -5.907029    0.175284
 ---------------------------------------------------------------------
                    Distance matrix (angstroms):
                    1          2          3          4          5
     1  C    0.000000
     2  C    1.431802   0.000000
     3  C    2.473547   1.397143   0.000000
     4  C    2.876014   2.424777   1.382793   0.000000
     5  C    2.477283   2.775504   2.379369   1.383208   0.000000
     6  C    1.416649   2.386400   2.745068   2.403179   1.389467
     7  C    1.561877   2.673023   3.945173   4.435685   3.886118
[...]
     11          6           0       -2.288518   -0.972506    0.881609
     12          6           0       -0.898226   -1.054218    0.863553
     13          1           0        4.269323    1.281798    0.189588
     14          1           0        5.212576   -0.982888   -0.179822
     15          1           0        3.674598   -2.922829   -0.467461
     16          1           0        1.231569   -2.566960   -0.410760
     17          1           0       -0.249103    1.095660   -1.676631
     18          1           0       -2.714248    1.243238   -1.660860
     19          1           0       -2.866306   -1.543793    1.596832
     20          1           0       -0.396841   -1.694712    1.580213
     21         17           0        1.647282    2.247082    0.400970
     22         17           0       -4.683743   -0.031934   -0.019929
 ---------------------------------------------------------------------
 Rotational constants (GHZ):           1.2850113           0.2723341           0.2372022

 **********************************************************************

            Population analysis using the SCF Density.

 **********************************************************************

 Orbital symmetries:
       Occupied  (A) (A) (A) (A) (A) (A) (A) (A) (A) (A) (A) (A)
                 (A) (A) (A) (A) (A) (A) (A) (A) (A) (A) (A) (A)
                 (A) (A) (A) (A) (A) (A) (A) (A) (A) (A) (A) (A)
                 (A) (A) (A) (A) (A) (A) (A) (A) (A) (A) (A) (A)
                 (A) (A) (A) (A) (A) (A) (A) (A) (A)
       Virtual   (A) (A) (A) (A) (A) (A) (A) (A) (A) (A) (A) (A)
                 (A) (A) (A) (A) (A) (A) (A) (A) (A) (A) (A) (A)
                 (A) (A) (A) (A) (A) (A) (A) (A) (A) (A) (A) (A)
                 (A) (A) (A) (A) (A) (A) (A) (A) (A) (A) (A) (A)
                 (A) (A) (A) (A) (A) (A) (A) (A) (A) (A) (A) (A)
                 (A) (A) (A) (A) (A) (A) (A) (A) (A) (A) (A) (A)
                 (A) (A) (A) (A) (A) (A) (A) (A) (A) (A) (A) (A)
                 (A) (A) (A) (A) (A) (A) (A) (A) (A) (A) (A) (A)
                 (A) (A) (A) (A) (A) (A) (A) (A) (A) (A) (A) (A)
                 (A) (A) (A) (A) (A) (A) (A) (A) (A) (A) (A) (A)
                 (A) (A) (A) (A) (A) (A) (A) (A) (A) (A) (A) (A)
                 (A) (A) (A) (A) (A) (A) (A) (A) (A) (A) (A) (A)
                 (A) (A) (A) (A) (A) (A) (A) (A) (A) (A) (A) (A)
                 (A) (A) (A) (A) (A) (A) (A) (A) (A) (A) (A) (A)
                 (A) (A) (A) (A) (A) (A) (A) (A) (A) (A) (A) (A)
                 (A) (A) (A) (A) (A) (A) (A) (A) (A) (A) (A) (A)
                 (A) (A) (A) (A) (A) (A) (A) (A) (A) (A) (A) (A)
                 (A) (A) (A) (A) (A) (A) (A) (A) (A) (A) (A) (A)
                 (A) (A) (A) (A) (A) (A) (A) (A) (A) (A) (A) (A)
                 (A) (A) (A) (A) (A) (A) (A) (A) (A) (A) (A) (A)
                 (A) (A) (A) (A) (A) (A) (A) (A) (A) (A) (A) (A)
                 (A) (A) (A) (A) (A) (A) (A) (A) (A) (A) (A) (A)
                 (A) (A) (A) (A) (A) (A) (A) (A) (A) (A) (A) (A)
                 (A) (A) (A) (A) (A) (A) (A) (A) (A) (A) (A) (A)
                 (A) (A) (A) (A) (A) (A) (A) (A) (A) (A) (A) (A)
                 (A) (A) (A) (A) (A) (A) (A) (A) (A) (A) (A) (A)
                 (A) (A)
 The electronic state is 1-A.
 Alpha  occ. eigenvalues -- -101.55826-101.55747 -10.25012 -10.24608 -10.21157
 Alpha  occ. eigenvalues --  -10.20432 -10.19754 -10.19619 -10.19611 -10.19573
 Alpha  occ. eigenvalues --  -10.19549 -10.19545 -10.19455 -10.19297  -9.47302
 Alpha  occ. eigenvalues --   -9.47204  -7.23759  -7.23660  -7.22792  -7.22742
 Alpha  occ. eigenvalues --   -7.22690  -7.22655  -0.91091  -0.89861  -0.85345
 Alpha  occ. eigenvalues --   -0.84660  -0.78994  -0.77121  -0.75225  -0.72990
 Alpha  occ. eigenvalues --   -0.64241  -0.63599  -0.61810  -0.59715  -0.54678
 Alpha  occ. eigenvalues --   -0.51303  -0.49681  -0.48305  -0.47912  -0.46558
 Alpha  occ. eigenvalues --   -0.44548  -0.44332  -0.44262  -0.41028  -0.40369
 Alpha  occ. eigenvalues --   -0.39826  -0.37880  -0.37230  -0.36785  -0.34559
 Alpha  occ. eigenvalues --   -0.34237  -0.32174  -0.32001  -0.28274  -0.27577
 Alpha  occ. eigenvalues --   -0.26403  -0.24703
 Alpha virt. eigenvalues --   -0.04972  -0.03815  -0.02969  -0.01565  -0.00495
 Alpha virt. eigenvalues --   -0.00103   0.01148   0.01356   0.01976   0.02443
 Alpha virt. eigenvalues --    0.03065   0.04134   0.04476   0.04966   0.05088
 Alpha virt. eigenvalues --    0.05726   0.06572   0.07196   0.07354   0.08161
 Alpha virt. eigenvalues --    0.08678   0.09196   0.09862   0.10199   0.10475
 Alpha virt. eigenvalues --    0.10971   0.11510   0.11741   0.12415   0.12744
 Alpha virt. eigenvalues --    0.13062   0.13593   0.13994   0.14218   0.14861
 Alpha virt. eigenvalues --    0.15238   0.15864   0.16095   0.16648   0.16883
 Alpha virt. eigenvalues --    0.17800   0.17893   0.18352   0.18620   0.19055
 Alpha virt. eigenvalues --    0.19309   0.19571   0.20025   0.20499   0.20935
 Alpha virt. eigenvalues --    0.20976   0.21251   0.21439   0.21990   0.22789
 Alpha virt. eigenvalues --    0.23289   0.23589   0.23734   0.23956   0.24232
 Alpha virt. eigenvalues --    0.25469   0.26013   0.26346   0.26553   0.27127
 Alpha virt. eigenvalues --    0.27592   0.28138   0.28414   0.28656   0.29532
 Alpha virt. eigenvalues --    0.29746   0.30495   0.31060   0.31557   0.31783
 Alpha virt. eigenvalues --    0.32977   0.34201   0.34781   0.35272   0.36214
 Alpha virt. eigenvalues --    0.42658   0.43650   0.45021   0.45376   0.46485
 Alpha virt. eigenvalues --    0.47261   0.48542   0.49924   0.50851   0.51221
 Alpha virt. eigenvalues --    0.51781   0.52468   0.53340   0.53864   0.55708
 Alpha virt. eigenvalues --    0.56206   0.56854   0.57699   0.58009   0.58195
 Alpha virt. eigenvalues --    0.58652   0.59449   0.60500   0.61551   0.62287
 Alpha virt. eigenvalues --    0.62954   0.64134   0.64815   0.66334   0.66778
 Alpha virt. eigenvalues --    0.67291   0.67794   0.68960   0.69745   0.70085
 Alpha virt. eigenvalues --    0.70216   0.71089   0.71529   0.72413   0.73531
 Alpha virt. eigenvalues --    0.73640   0.74313   0.76074   0.79300   0.81704
 Alpha virt. eigenvalues --    0.82063   0.82409   0.82661   0.84020   0.84755
 Alpha virt. eigenvalues --    0.84997   0.85228   0.85809   0.86467   0.86681
 Alpha virt. eigenvalues --    0.87217   0.88788   0.89398   0.90042   0.90754
 Alpha virt. eigenvalues --    0.91521   0.92294   0.94520   0.94848   0.95478
 Alpha virt. eigenvalues --    0.96903   0.97918   0.99186   1.00073   1.00829
 Alpha virt. eigenvalues --    1.02398   1.03342   1.05175   1.06067   1.07494
 Alpha virt. eigenvalues --    1.08657   1.11136   1.12875   1.13555   1.14280
 Alpha virt. eigenvalues --    1.17723   1.19591   1.25508   1.26258   1.28712
 Alpha virt. eigenvalues --    1.29246   1.30655   1.32773   1.35226   1.38489
 Alpha virt. eigenvalues --    1.44328   1.47386   1.49167   1.50456   1.50723
 Alpha virt. eigenvalues --    1.52172   1.53069   1.54702   1.54913   1.56165
 Alpha virt. eigenvalues --    1.57247   1.58789   1.61305   1.63182   1.64275
 Alpha virt. eigenvalues --    1.65722   1.67123   1.67692   1.69403   1.71846
 Alpha virt. eigenvalues --    1.72823   1.73598   1.76409   1.76984   1.78131
 Alpha virt. eigenvalues --    1.82131   1.84437   1.87007   1.87838   1.89768
 Alpha virt. eigenvalues --    1.90663   1.91782   1.92846   1.93678   1.94123
 Alpha virt. eigenvalues --    1.94623   1.95399   1.96274   1.97337   1.98280
 Alpha virt. eigenvalues --    2.01742   2.02743   2.03775   2.05070   2.07385
 Alpha virt. eigenvalues --    2.07911   2.10730   2.17820   2.21085   2.22705
 Alpha virt. eigenvalues --    2.26545   2.28388   2.29691   2.30803   2.31945
 Alpha virt. eigenvalues --    2.35549   2.38106   2.39100   2.39360   2.41645
 Alpha virt. eigenvalues --    2.42067   2.44476   2.46085   2.53507   2.54797
 Alpha virt. eigenvalues --    2.55752   2.59795   2.60706   2.62779   2.65717
 Alpha virt. eigenvalues --    2.67320   2.67640   2.68799   2.71231   2.72000
 Alpha virt. eigenvalues --    2.72791   2.74314   2.74716   2.75483   2.75614
 Alpha virt. eigenvalues --    2.78362   2.78780   2.80060   2.80420   2.81272
 Alpha virt. eigenvalues --    2.82596   2.84670   2.84895   2.86026   2.89517
 Alpha virt. eigenvalues --    2.92485   2.92950   2.99656   3.00828   3.07845
 Alpha virt. eigenvalues --    3.09254   3.13723   3.15879   3.16918   3.21689
 Alpha virt. eigenvalues --    3.23586   3.33238   3.34930   3.38547   3.42472
 Alpha virt. eigenvalues --    3.48662   3.51192   3.54279   3.58962   3.61756
 Alpha virt. eigenvalues --    3.73010   3.79109   3.86898   3.97365   4.02434
 Alpha virt. eigenvalues --    4.06920   4.13021   4.13493   4.14669   4.40276
 Alpha virt. eigenvalues --    4.81545   4.84174   9.77571   9.80766  23.48123
 Alpha virt. eigenvalues --   23.63614  23.89864  23.90918  23.94460  23.94902
 Alpha virt. eigenvalues --   24.00285  24.06243  24.07752  24.08581  24.16063
 Alpha virt. eigenvalues --   24.17503  25.83257  25.89407  26.12405  26.23782
 Alpha virt. eigenvalues --   26.59389  26.69644 215.76647 215.80501
          Condensed to atoms (all electrons):
               1          2          3          4          5          6
     1  C   26.293981  -9.251831  -3.966959  -2.827430  -0.776298  -1.109177
     2  C   -9.251831  35.144210  -8.287810   0.892287  -3.681609  -5.657235
     3  C   -3.966959  -8.287810  23.709206  -0.759965   3.090101 -11.214945
     4  C   -2.827430   0.892287  -0.759965   7.240818  -0.631981   3.149405
     5  C   -0.776298  -3.681609   3.090101  -0.631981   8.594365  -2.521070
     6  C   -1.109177  -5.657235 -11.214945   3.149405  -2.521070  30.132211
     7  C   -0.949623  -5.673078   4.329427  -1.204299   1.462443  -5.961798
     8  C   -3.409922   4.355693   1.114534  -0.123017   0.123199  -3.259857
     9  C    1.823847  -1.091514  -0.431251   0.038951  -0.027003   1.132234
    10  C   -1.101228   0.354223   0.190937  -0.045608   0.106892  -0.511132
    11  C    0.225565   0.271581   0.116865   0.023794  -0.024566   0.024604
    12  C   -0.578020  -1.510590  -0.125958   0.013446   0.155329   1.304118
    13  H    0.115885  -0.019440   0.325510  -0.064383  -0.025528   0.021885
    14  H    0.034273  -0.060797   0.046175   0.327943   0.063126  -0.068540
    15  H   -0.003987   0.009831  -0.023912   0.012746   0.370922  -0.009408
    16  H    0.044250  -0.033707   0.036164  -0.020186  -0.037457   0.276493
    17  H   -0.030603   0.106993   0.001761   0.004565  -0.010295  -0.030685
    18  H    0.007362   0.000963   0.000324   0.000143  -0.000477   0.000999
    19  H    0.005894   0.000334  -0.000478   0.000163  -0.000713  -0.000546
    20  H    0.008135  -0.015038  -0.007864   0.006924  -0.010990   0.081010
    21  Cl   0.387342   0.225840  -1.304603   0.158344  -0.081804   0.874627
    22  Cl  -0.041931  -0.016919   0.001491  -0.001385   0.005400   0.001283
               7          8          9         10         11         12
     1  C   -0.949623  -3.409922   1.823847  -1.101228   0.225565  -0.578020
     2  C   -5.673078   4.355693  -1.091514   0.354223   0.271581  -1.510590
     3  C    4.329427   1.114534  -0.431251   0.190937   0.116865  -0.125958
     4  C   -1.204299  -0.123017   0.038951  -0.045608   0.023794   0.013446
     5  C    1.462443   0.123199  -0.027003   0.106892  -0.024566   0.155329
     6  C   -5.961798  -3.259857   1.132234  -0.511132   0.024604   1.304118
     7  C   28.830082  -5.535606   0.675878  -6.785719  -0.468688  -2.496717
     8  C   -5.535606  28.915571  -4.026423   1.923096  -1.306652 -12.319282
     9  C    0.675878  -4.026423  21.928734  -3.932896  -7.766290  -2.211338
    10  C   -6.785719   1.923096  -3.932896  17.515765  -1.869519   0.402280
    11  C   -0.468688  -1.306652  -7.766290  -1.869519  18.535788  -1.202474
    12  C   -2.496717 -12.319282  -2.211338   0.402280  -1.202474  24.635434
    13  H    0.000456  -0.002113  -0.000198  -0.000117  -0.000272   0.001151
    14  H    0.008578  -0.001226  -0.000038   0.000004  -0.000010  -0.000210
    15  H   -0.005497  -0.000665   0.000005  -0.000091  -0.000099  -0.001052
    16  H    0.018726  -0.045826  -0.011114   0.006060  -0.004576   0.116314
    17  H   -0.025143   0.369287  -0.054746   0.004960  -0.030504   0.049032
    18  H   -0.008574  -0.020770   0.249159   0.076573   0.064186  -0.016413
    19  H   -0.018504  -0.008541   0.052819   0.084952   0.252398  -0.014982
    20  H    0.022945   0.016760  -0.015841  -0.017130  -0.033295   0.316193
    21  Cl  -1.236550  -0.002151   0.269782  -0.063866  -0.103591  -0.172668
    22  Cl  -0.146332   0.269282   0.125182  -1.208407   0.005624   0.327155
              13         14         15         16         17         18
     1  C    0.115885   0.034273  -0.003987   0.044250  -0.030603   0.007362
     2  C   -0.019440  -0.060797   0.009831  -0.033707   0.106993   0.000963
     3  C    0.325510   0.046175  -0.023912   0.036164   0.001761   0.000324
     4  C   -0.064383   0.327943   0.012746  -0.020186   0.004565   0.000143
     5  C   -0.025528   0.063126   0.370922  -0.037457  -0.010295  -0.000477
     6  C    0.021885  -0.068540  -0.009408   0.276493  -0.030685   0.000999
     7  C    0.000456   0.008578  -0.005497   0.018726  -0.025143  -0.008574
     8  C   -0.002113  -0.001226  -0.000665  -0.045826   0.369287  -0.020770
     9  C   -0.000198  -0.000038   0.000005  -0.011114  -0.054746   0.249159
    10  C   -0.000117   0.000004  -0.000091   0.006060   0.004960   0.076573
    11  C   -0.000272  -0.000010  -0.000099  -0.004576  -0.030504   0.064186
    12  C    0.001151  -0.000210  -0.001052   0.116314   0.049032  -0.016413
    13  H    0.513604  -0.007930  -0.000222   0.000052   0.000002   0.000000
    14  H   -0.007930   0.531741  -0.007671  -0.000276   0.000000  -0.000000
    15  H   -0.000222  -0.007671   0.533454  -0.007431   0.000004   0.000000
    16  H    0.000052  -0.000276  -0.007431   0.532690  -0.000052   0.000002
    17  H    0.000002   0.000000   0.000004  -0.000052   0.519523  -0.007807
    18  H    0.000000  -0.000000   0.000000   0.000002  -0.007807   0.515793
    19  H    0.000000  -0.000000   0.000000   0.000024   0.000065  -0.000318
    20  H    0.000003  -0.000001   0.000022  -0.000624  -0.000287   0.000070
    21  Cl  -0.008361   0.000373   0.001316  -0.002657  -0.003891  -0.000824
    22  Cl  -0.000001   0.000000  -0.000001  -0.000101   0.000058  -0.010567
              19         20         21         22
     1  C    0.005894   0.008135   0.387342  -0.041931
     2  C    0.000334  -0.015038   0.225840  -0.016919
     3  C   -0.000478  -0.007864  -1.304603   0.001491
     4  C    0.000163   0.006924   0.158344  -0.001385
     5  C   -0.000713  -0.010990  -0.081804   0.005400
     6  C   -0.000546   0.081010   0.874627   0.001283
     7  C   -0.018504   0.022945  -1.236550  -0.146332
     8  C   -0.008541   0.016760  -0.002151   0.269282
     9  C    0.052819  -0.015841   0.269782   0.125182
    10  C    0.084952  -0.017130  -0.063866  -1.208407
    11  C    0.252398  -0.033295  -0.103591   0.005624
    12  C   -0.014982   0.316193  -0.172668   0.327155
    13  H    0.000000   0.000003  -0.008361  -0.000001
    14  H   -0.000000  -0.000001   0.000373   0.000000
    15  H    0.000000   0.000022   0.001316  -0.000001
    16  H    0.000024  -0.000624  -0.002657  -0.000101
    17  H    0.000065  -0.000287  -0.003891   0.000058
    18  H   -0.000318   0.000070  -0.000824  -0.010567
    19  H    0.516038  -0.007918  -0.000161  -0.010127
    20  H   -0.007918   0.529122  -0.002076  -0.000012
    21  Cl  -0.000161  -0.002076  17.656941   0.002277
    22  Cl  -0.010127  -0.000012   0.002277  17.336544
 Mulliken charges:
               1
     1  C    1.100474
     2  C   -0.062387
     3  C   -0.838751
     4  C   -0.191273
     5  C   -0.141986
     6  C   -0.654476
     7  C    1.167594
     8  C   -1.025370
     9  C   -0.727938
    10  C    0.869971
    11  C   -0.709868
    12  C   -0.670746
    13  H    0.150017
    14  H    0.134487
    15  H    0.131734
    16  H    0.133234
    17  H    0.137764
    18  H    0.150178
    19  H    0.149599
    20  H    0.129892
    21  Cl   0.406363
    22  Cl   0.361490
 Sum of Mulliken charges =  -0.00000
 Mulliken charges with hydrogens summed into heavy atoms:
               1
     1  C    1.100474
     2  C   -0.062387
     3  C   -0.688734
     4  C   -0.056787
     5  C   -0.010252
     6  C   -0.521242
     7  C    1.167594
     8  C   -0.887606
     9  C   -0.577761
    10  C    0.869971
    11  C   -0.560269
    12  C   -0.540854
    21  Cl   0.406363
    22  Cl   0.361490
 Electronic spatial extent (au):  <R**2>=           4269.5379
 Charge=              0.0000 electrons
 Dipole moment (field-independent basis, Debye):
    X=              2.2994    Y=             -1.6237    Z=             -0.3262  Tot=              2.8337
 Quadrupole moment (field-independent basis, Debye-Ang):
   XX=            -93.7718   YY=            -92.2801   ZZ=            -95.6710
   XY=             -3.1525   XZ=             -0.8187   YZ=             -3.6016
 Traceless Quadrupole moment (field-independent basis, Debye-Ang):
   XX=              0.1358   YY=              1.6275   ZZ=             -1.7634
   XY=             -3.1525   XZ=             -0.8187   YZ=             -3.6016
 Octapole moment (field-independent basis, Debye-Ang**2):
  XXX=             73.2345  YYY=             -1.8499  ZZZ=              2.6910  XYY=              0.9065
  XXY=             -3.2954  XXZ=              0.2196  XZZ=            -17.0548  YZZ=              5.4716
  YYZ=             -0.3003  XYZ=              9.9909
 Hexadecapole moment (field-independent basis, Debye-Ang**3):
 XXXX=          -4419.1120 YYYY=           -909.8299 ZZZZ=           -283.6296 XXXY=            -17.0823
 XXXZ=             -7.3946 YYYX=            -20.6413 YYYZ=              7.3504 ZZZX=              6.3900
 ZZZY=            -14.4956 XXYY=           -891.4385 XXZZ=           -840.6028 YYZZ=           -201.4582
 XXYZ=             -7.0834 YYXZ=             -9.8234 ZZXY=             12.2306
 N-N= 9.670191636595D+02 E-N=-5.193751912586D+03  KE= 1.378413515564D+03
 1\1\GINC-DAMODAR\FOpt\RB3LYP\6-311+G(d,p)\C12H8Cl2\PKC\14-Mar-2022\0\\
 # opt b3lyp/6-311+g(d,p) scf=xqc\\Title Card Required\\0,1\C,-1.802204
 8781,-0.694956034,0.0765150737\C,-0.725301883,-0.4216363671,-0.7803035
 262\C,-0.0385960816,0.7891692889,-0.7322743442\C,-0.4191930112,1.76500
 30404,0.1832468119\C,-1.4894663645,1.5275698267,1.0423908331\C,-2.1655
 187045,0.313984141,0.9831130612\C,-2.5679082102,-1.9719076045,0.068184
 3329\C,-1.9422996803,-3.2026915053,0.3018477985\C,-2.6752651527,-4.384
 4011657,0.3423136961\C,-4.051314006,-4.3381220918,0.1407720958\C,-4.70
 06160847,-3.1317606247,-0.0940118154\C,-3.9542246722,-1.956245118,-0.1
 252574992\H,0.78188045,0.9619142835,-1.4169309424\H,0.1185743108,2.705
 247434,0.2188590074\H,-1.7933328757,2.2804658983,1.760174784\H,-2.9873
 986432,0.1210594017,1.6631339532\H,-0.8721133272,-3.2402504689,0.46448
 14308\H,-2.1850187554,-5.3309064473,0.5308437243\H,-5.7710085285,-3.11
 09974842,-0.2539473298\H,-4.4572593125,-1.0154575476,-0.3178628188\Cl,
 -0.2215180295,-1.5879943301,-2.0023477723\Cl,-4.9833519996,-5.82917065
 53,0.1863277753\\Version=EM64L-G16RevB.01\State=1-A\HF=-1382.6641059\R
 MSD=9.723e-09\RMSF=1.350e-05\Dipole=0.1875552,1.0088142,0.4359642\Quad
 rupole=0.6462812,2.545304,-3.1915852,-1.6898781,0.5208204,1.721136\PG=
 C01 [X(C12H8Cl2)]\\@


 SI MONUMENTUM REQUIRIS, CIRCUMSPICE
     -- FROM SIR CHRISTOPHER WREN'S TOMBSTONE
 Job cpu time:       0 days  8 hours 56 minutes 44.5 seconds.
 Elapsed time:       0 days  3 hours  1 minutes 56.7 seconds.
 File lengths (MBytes):  RWF=     93 Int=      0 D2E=      0 Chk=     15 Scr=      1
 Normal termination of Gaussian 16 at Mon Mar 14 20:06:26 2022.
