 Entering Gaussian System, Link 0=g16
 Input=3,3prime,4,4prime,5,5prime-Hexachlorobiphenyl.gjf
 Output=3,3prime,4,4prime,5,5prime-Hexachlorobiphenyl.log
 Initial command:
 /home/apps/g16/l1.exe "./Gau-434775.inp" -scrdir="./"
 Entering Link 1 = /home/apps/g16/l1.exe PID=    434776.
  
 Copyright (c) 1988-2017, Gaussian, Inc.  All Rights Reserved.
  
 This is part of the Gaussian(R) 16 program.  It is based on
 the Gaussian(R) 09 system (copyright 2009, Gaussian, Inc.),
 the Gaussian(R) 03 system (copyright 2003, Gaussian, Inc.),
 the Gaussian(R) 98 system (copyright 1998, Gaussian, Inc.),
 the Gaussian(R) 94 system (copyright 1995, Gaussian, Inc.),
 the Gaussian 92(TM) system (copyright 1992, Gaussian, Inc.),
 the Gaussian 90(TM) system (copyright 1990, Gaussian, Inc.),
 the Gaussian 88(TM) system (copyright 1988, Gaussian, Inc.),
 the Gaussian 86(TM) system (copyright 1986, Carnegie Mellon
 University), and the Gaussian 82(TM) system (copyright 1983,
 Carnegie Mellon University). Gaussian is a federally registered
 trademark of Gaussian, Inc.
  
 This software contains proprietary and confidential information,
 including trade secrets, belonging to Gaussian, Inc.
  
 This software is provided under written license and may be
 used, copied, transmitted, or stored only in accord with that
 written license.
  
 The following legend is applicable only to US Government
 contracts under FAR:
  
                    RESTRICTED RIGHTS LEGEND
  
 Use, reproduction and disclosure by the US Government is
 subject to restrictions as set forth in subparagraphs (a)
 and (c) of the Commercial Computer Software - Restricted
 Rights clause in FAR 52.227-19.
  
 Gaussian, Inc.
 340 Quinnipiac St., Bldg. 40, Wallingford CT 06492
  
  
 ---------------------------------------------------------------
 Warning -- This program may not be used in any manner that
 competes with the business of Gaussian, Inc. or will provide
 assistance to any competitor of Gaussian, Inc.  The licensee
 of this program is prohibited from giving any competitor of
 Gaussian, Inc. access to this program.  By using this program,
 the user acknowledges that Gaussian, Inc. is engaged in the
 business of creating and licensing software in the field of
 computational chemistry and represents and warrants to the
 licensee that it is not a competitor of Gaussian, Inc. and that
 it will not use this program in any manner prohibited above.
 ---------------------------------------------------------------
  

 Cite this work as:
 Gaussian 16, Revision B.01,
 M. J. Frisch, G. W. Trucks, H. B. Schlegel, G. E. Scuseria, 
 M. A. Robb, J. R. Cheeseman, G. Scalmani, V. Barone, 
 G. A. Petersson, H. Nakatsuji, X. Li, M. Caricato, A. V. Marenich, 
 J. Bloino, B. G. Janesko, R. Gomperts, B. Mennucci, H. P. Hratchian, 
 J. V. Ortiz, A. F. Izmaylov, J. L. Sonnenberg, D. Williams-Young, 
 F. Ding, F. Lipparini, F. Egidi, J. Goings, B. Peng, A. Petrone, 
 T. Henderson, D. Ranasinghe, V. G. Zakrzewski, J. Gao, N. Rega, 
 G. Zheng, W. Liang, M. Hada, M. Ehara, K. Toyota, R. Fukuda, 
 J. Hasegawa, M. Ishida, T. Nakajima, Y. Honda, O. Kitao, H. Nakai, 
 T. Vreven, K. Throssell, J. A. Montgomery, Jr., J. E. Peralta, 
 F. Ogliaro, M. J. Bearpark, J. J. Heyd, E. N. Brothers, K. N. Kudin, 
 V. N. Staroverov, T. A. Keith, R. Kobayashi, J. Normand, 
 K. Raghavachari, A. P. Rendell, J. C. Burant, S. S. Iyengar, 
 J. Tomasi, M. Cossi, J. M. Millam, M. Klene, C. Adamo, R. Cammi, 
 J. W. Ochterski, R. L. Martin, K. Morokuma, O. Farkas, 
 J. B. Foresman, and D. J. Fox, Gaussian, Inc., Wallingford CT, 2016.
 
 ******************************************
 Gaussian 16:  EM64L-G16RevB.01 20-Dec-2017
                24-Mar-2022 
 ******************************************
 %mem=10GB
 %nprocshared=4
 Will use up to    4 processors via shared memory.
 --------------------------------
 # opt b3lyp/6-311+g(d,p) scf=xqc
 --------------------------------
 1/18=20,19=15,26=3,38=1/1,3;
 2/9=110,12=2,17=6,18=5,40=1/2;
 3/5=4,6=6,7=111,11=2,25=1,30=1,71=1,74=-5/1,2,3;
 4//1;
 5/5=2,8=3,13=1,38=5/2,8;
 6/7=2,8=2,9=2,10=2,28=1/1;
 7//1,2,3,16;
 1/18=20,19=15,26=3/3(2);
 2/9=110/2;
 99//99;
 2/9=110/2;
 3/5=4,6=6,7=111,11=2,25=1,30=1,71=1,74=-5/1,2,3;
 4/5=5,16=3,69=1/1;
 5/5=2,8=3,13=1,38=5/2,8;
 7//1,2,3,16;
 1/18=20,19=15,26=3/3(-5);
 2/9=110/2;
 6/7=2,8=2,9=2,10=2,19=2,28=1/1;
 99/9=1/99;
 -------------------
 Title Card Required
 -------------------
 Symbolic Z-matrix:
 Charge =  0 Multiplicity = 1
 C                    -0.92463   0.54925   0.90984 
 C                     0.40775   0.57913   0.47649 
 C                     1.11564   1.78858   0.47042 
 C                     0.49116   2.96815   0.8977 
 C                    -0.84123   2.93826   1.33104 
 C                    -1.54912   1.72881   1.33711 
 C                    -1.70254  -0.77982   0.91651 
 C                    -1.07805  -1.95938   0.48924 
 C                    -1.78594  -3.16884   0.49531 
 C                    -3.11832  -3.19872   0.92866 
 C                    -3.74281  -2.01916   1.35594 
 C                    -3.03492  -0.80971   1.34987 
 H                     0.88456  -0.32149   0.15026 
 H                    -2.56642   1.70599   1.66798 
 H                    -0.06075  -1.93657   0.15837 
 H                    -3.51173   0.09092   1.6761 
 Cl                    1.38019   4.48708   0.89007 
 Cl                   -4.00736  -4.71766   0.9363 
 Cl                   -1.62551   4.41967   1.86765 
 Cl                   -5.41613  -2.05669   1.90018 
 Cl                    2.78896   1.82612  -0.07381 
 Cl                   -1.00166  -4.65024  -0.04129 
 

 GradGradGradGradGradGradGradGradGradGradGradGradGradGradGradGradGradGrad
 Berny optimization.
 Initialization pass.
                           ----------------------------
                           !    Initial Parameters    !
                           ! (Angstroms and Degrees)  !
 --------------------------                            --------------------------
 ! Name  Definition              Value          Derivative Info.                !
 --------------------------------------------------------------------------------
 ! R1    R(1,2)                  1.4014         estimate D2E/DX2                !
 ! R2    R(1,6)                  1.4014         estimate D2E/DX2                !
 ! R3    R(1,7)                  1.54           estimate D2E/DX2                !
 ! R4    R(2,3)                  1.4014         estimate D2E/DX2                !
 ! R5    R(2,13)                 1.07           estimate D2E/DX2                !
 ! R6    R(3,4)                  1.4014         estimate D2E/DX2                !
 ! R7    R(3,21)                 1.76           estimate D2E/DX2                !
 ! R8    R(4,5)                  1.4014         estimate D2E/DX2                !
 ! R9    R(4,17)                 1.76           estimate D2E/DX2                !
 ! R10   R(5,6)                  1.4014         estimate D2E/DX2                !
 ! R11   R(5,19)                 1.76           estimate D2E/DX2                !
 ! R12   R(6,14)                 1.07           estimate D2E/DX2                !
 ! R13   R(7,8)                  1.4014         estimate D2E/DX2                !
 ! R14   R(7,12)                 1.4014         estimate D2E/DX2                !
 ! R15   R(8,9)                  1.4014         estimate D2E/DX2                !
 ! R16   R(8,15)                 1.07           estimate D2E/DX2                !
 ! R17   R(9,10)                 1.4014         estimate D2E/DX2                !
 ! R18   R(9,22)                 1.76           estimate D2E/DX2                !
 ! R19   R(10,11)                1.4014         estimate D2E/DX2                !
 ! R20   R(10,18)                1.76           estimate D2E/DX2                !
 ! R21   R(11,12)                1.4014         estimate D2E/DX2                !
 ! R22   R(11,20)                1.76           estimate D2E/DX2                !
 ! R23   R(12,16)                1.07           estimate D2E/DX2                !
 ! A1    A(2,1,6)              120.0            estimate D2E/DX2                !
 ! A2    A(2,1,7)              120.0            estimate D2E/DX2                !
 ! A3    A(6,1,7)              120.0            estimate D2E/DX2                !
 ! A4    A(1,2,3)              120.0            estimate D2E/DX2                !
 ! A5    A(1,2,13)             120.0            estimate D2E/DX2                !
 ! A6    A(3,2,13)             120.0            estimate D2E/DX2                !
 ! A7    A(2,3,4)              120.0            estimate D2E/DX2                !
 ! A8    A(2,3,21)             120.0            estimate D2E/DX2                !
 ! A9    A(4,3,21)             120.0            estimate D2E/DX2                !
 ! A10   A(3,4,5)              120.0            estimate D2E/DX2                !
 ! A11   A(3,4,17)             120.0            estimate D2E/DX2                !
 ! A12   A(5,4,17)             120.0            estimate D2E/DX2                !
 ! A13   A(4,5,6)              120.0            estimate D2E/DX2                !
 ! A14   A(4,5,19)             120.0            estimate D2E/DX2                !
 ! A15   A(6,5,19)             120.0            estimate D2E/DX2                !
 ! A16   A(1,6,5)              120.0            estimate D2E/DX2                !
 ! A17   A(1,6,14)             120.0            estimate D2E/DX2                !
 ! A18   A(5,6,14)             120.0            estimate D2E/DX2                !
 ! A19   A(1,7,8)              120.0            estimate D2E/DX2                !
 ! A20   A(1,7,12)             120.0            estimate D2E/DX2                !
 ! A21   A(8,7,12)             120.0            estimate D2E/DX2                !
 ! A22   A(7,8,9)              120.0            estimate D2E/DX2                !
 ! A23   A(7,8,15)             120.0            estimate D2E/DX2                !
 ! A24   A(9,8,15)             120.0            estimate D2E/DX2                !
 ! A25   A(8,9,10)             120.0            estimate D2E/DX2                !
 ! A26   A(8,9,22)             120.0            estimate D2E/DX2                !
 ! A27   A(10,9,22)            120.0            estimate D2E/DX2                !
 ! A28   A(9,10,11)            120.0            estimate D2E/DX2                !
 ! A29   A(9,10,18)            120.0            estimate D2E/DX2                !
 ! A30   A(11,10,18)           120.0            estimate D2E/DX2                !
 ! A31   A(10,11,12)           120.0            estimate D2E/DX2                !
 ! A32   A(10,11,20)           120.0            estimate D2E/DX2                !
 ! A33   A(12,11,20)           120.0            estimate D2E/DX2                !
 ! A34   A(7,12,11)            120.0            estimate D2E/DX2                !
 ! A35   A(7,12,16)            120.0            estimate D2E/DX2                !
 ! A36   A(11,12,16)           120.0            estimate D2E/DX2                !
 ! D1    D(6,1,2,3)              0.0001         estimate D2E/DX2                !
 ! D2    D(6,1,2,13)           180.0            estimate D2E/DX2                !
 ! D3    D(7,1,2,3)           -180.0            estimate D2E/DX2                !
 ! D4    D(7,1,2,13)            -0.0001         estimate D2E/DX2                !
 ! D5    D(2,1,6,5)             -0.0001         estimate D2E/DX2                !
 ! D6    D(2,1,6,14)           180.0            estimate D2E/DX2                !
 ! D7    D(7,1,6,5)            180.0            estimate D2E/DX2                !
 ! D8    D(7,1,6,14)             0.0            estimate D2E/DX2                !
 ! D9    D(2,1,7,8)             -0.0001         estimate D2E/DX2                !
 ! D10   D(2,1,7,12)           179.9998         estimate D2E/DX2                !
 ! D11   D(6,1,7,8)            179.9999         estimate D2E/DX2                !
 ! D12   D(6,1,7,12)            -0.0002         estimate D2E/DX2                !
 ! D13   D(1,2,3,4)              0.0            estimate D2E/DX2                !
 ! D14   D(1,2,3,21)           180.0            estimate D2E/DX2                !
 ! D15   D(13,2,3,4)          -179.9999         estimate D2E/DX2                !
 ! D16   D(13,2,3,21)            0.0001         estimate D2E/DX2                !
 ! D17   D(2,3,4,5)             -0.0001         estimate D2E/DX2                !
 ! D18   D(2,3,4,17)           180.0            estimate D2E/DX2                !
 ! D19   D(21,3,4,5)           179.9999         estimate D2E/DX2                !
 ! D20   D(21,3,4,17)            0.0            estimate D2E/DX2                !
 ! D21   D(3,4,5,6)              0.0001         estimate D2E/DX2                !
 ! D22   D(3,4,5,19)          -179.9999         estimate D2E/DX2                !
 ! D23   D(17,4,5,6)          -180.0            estimate D2E/DX2                !
 ! D24   D(17,4,5,19)            0.0            estimate D2E/DX2                !
 ! D25   D(4,5,6,1)              0.0            estimate D2E/DX2                !
 ! D26   D(4,5,6,14)           179.9999         estimate D2E/DX2                !
 ! D27   D(19,5,6,1)           180.0            estimate D2E/DX2                !
 ! D28   D(19,5,6,14)           -0.0001         estimate D2E/DX2                !
 ! D29   D(1,7,8,9)            179.9999         estimate D2E/DX2                !
 ! D30   D(1,7,8,15)             0.0001         estimate D2E/DX2                !
 ! D31   D(12,7,8,9)             0.0001         estimate D2E/DX2                !
 ! D32   D(12,7,8,15)         -179.9998         estimate D2E/DX2                !
 ! D33   D(1,7,12,11)         -179.9999         estimate D2E/DX2                !
 ! D34   D(1,7,12,16)            0.0            estimate D2E/DX2                !
 ! D35   D(8,7,12,11)           -0.0001         estimate D2E/DX2                !
 ! D36   D(8,7,12,16)          179.9999         estimate D2E/DX2                !
 ! D37   D(7,8,9,10)             0.0            estimate D2E/DX2                !
 ! D38   D(7,8,9,22)           180.0            estimate D2E/DX2                !
 ! D39   D(15,8,9,10)          179.9998         estimate D2E/DX2                !
 ! D40   D(15,8,9,22)           -0.0002         estimate D2E/DX2                !
 ! D41   D(8,9,10,11)            0.0            estimate D2E/DX2                !
 ! D42   D(8,9,10,18)         -179.9999         estimate D2E/DX2                !
 ! D43   D(22,9,10,11)         180.0            estimate D2E/DX2                !
 ! D44   D(22,9,10,18)           0.0001         estimate D2E/DX2                !
 ! D45   D(9,10,11,12)           0.0            estimate D2E/DX2                !
 ! D46   D(9,10,11,20)        -179.9998         estimate D2E/DX2                !
 ! D47   D(18,10,11,12)        179.9999         estimate D2E/DX2                !
 ! D48   D(18,10,11,20)          0.0001         estimate D2E/DX2                !
 ! D49   D(10,11,12,7)           0.0            estimate D2E/DX2                !
 ! D50   D(10,11,12,16)       -179.9999         estimate D2E/DX2                !
 ! D51   D(20,11,12,7)         179.9999         estimate D2E/DX2                !
 ! D52   D(20,11,12,16)         -0.0001         estimate D2E/DX2                !
 --------------------------------------------------------------------------------
 Trust Radius=3.00D-01 FncErr=1.00D-07 GrdErr=1.00D-06 EigMax=2.50D+02 EigMin=1.00D-04
 Number of steps in this run=    121 maximum allowed number of steps=    132.
 GradGradGradGradGradGradGradGradGradGradGradGradGradGradGradGradGradGrad

                          Input orientation:                          
 ---------------------------------------------------------------------
 Center     Atomic      Atomic             Coordinates (Angstroms)
 Number     Number       Type             X           Y           Z
 ---------------------------------------------------------------------
      1          6           0       -0.924632    0.549248    0.909841
      2          6           0        0.407749    0.579133    0.476494
      3          6           0        1.115642    1.788584    0.470422
      4          6           0        0.491155    2.968149    0.897697
      5          6           0       -0.841227    2.938264    1.331042
      6          6           0       -1.549120    1.728813    1.337114
      7          6           0       -1.702537   -0.779820    0.916515
      8          6           0       -1.078050   -1.959385    0.489240
      9          6           0       -1.785943   -3.168836    0.495314
     10          6           0       -3.118323   -3.198723    0.928664
     11          6           0       -3.742810   -2.019158    1.355940
     12          6           0       -3.034917   -0.809706    1.349865
     13          1           0        0.884559   -0.321491    0.150263
     14          1           0       -2.566423    1.705995    1.667983
     15          1           0       -0.060747   -1.936566    0.158370
     16          1           0       -3.511726    0.090918    1.676101
     17         17           0        1.380190    4.487083    0.890071
     18         17           0       -4.007355   -4.717657    0.936295
     19         17           0       -1.625513    4.419665    1.867647
     20         17           0       -5.416127   -2.056692    1.900182
     21         17           0        2.788963    1.826118   -0.073811
     22         17           0       -1.001657   -4.650236   -0.041295
 ---------------------------------------------------------------------
                    Distance matrix (angstroms):
                    1          2          3          4          5
     1  C    0.000000
     2  C    1.401400   0.000000
     3  C    2.427296   1.401400   0.000000
     4  C    2.802800   2.427296   1.401400   0.000000
     5  C    2.427296   2.802800   2.427296   1.401400   0.000000
     6  C    1.401400   2.427296   2.802800   2.427296   1.401400
     7  C    1.540000   2.548270   3.838989   4.342800   3.838989
     8  C    2.548270   2.941400   4.342800   5.187469   4.975106
     9  C    3.838989   4.342800   5.744200   6.558176   6.235992
    10  C    4.342800   5.187469   6.558176   7.145600   6.558176
    11  C    3.838989   4.975106   6.235992   6.558176   5.744200
    12  C    2.548270   3.813607   4.975106   5.187469   4.342800
    13  H    2.146700   1.070000   2.146700   3.396345   3.872800
    14  H    2.146700   3.396345   3.872800   3.396345   2.146700
    15  H    2.736837   2.578650   3.918930   4.990735   5.074276
    16  H    2.736837   4.127917   5.074276   4.990735   3.918930
    17  Cl   4.562800   4.048303   2.743718   1.760000   2.743718
    18  Cl   6.102800   6.910901   8.294174   8.905600   8.294174
    19  Cl   4.048303   4.562800   4.048303   2.743718   1.760000
    20  Cl   5.286324   6.549198   7.713260   7.819846   6.797295
    21  Cl   4.048303   2.743718   1.760000   2.743718   4.048303
    22  Cl   5.286324   5.440665   6.797295   7.819846   7.713260
                    6          7          8          9         10
     6  C    0.000000
     7  C    2.548270   0.000000
     8  C    3.813607   1.401400   0.000000
     9  C    4.975106   2.427296   1.401400   0.000000
    10  C    5.187469   2.802800   2.427296   1.401400   0.000000
    11  C    4.342800   2.427296   2.802800   2.427296   1.401400
    12  C    2.941400   1.401400   2.427296   2.802800   2.427296
    13  H    3.396345   2.736837   2.578650   3.918930   4.990735
    14  H    1.070000   2.736837   4.127917   5.074276   4.990735
    15  H    4.127917   2.146700   1.070000   2.146700   3.396345
    16  H    2.578650   2.146700   3.396345   3.872800   3.396345
    17  Cl   4.048303   6.102800   6.910901   8.294174   8.905600
    18  Cl   6.910901   4.562800   4.048303   2.743718   1.760000
    19  Cl   2.743718   5.286324   6.549198   7.713260   7.819846
    20  Cl   5.440665   4.048303   4.562800   4.048303   2.743718
    21  Cl   4.562800   5.286324   5.440665   6.797295   7.819846
    22  Cl   6.549198   4.048303   2.743718   1.760000   2.743718
                   11         12         13         14         15
    11  C    0.000000
    12  C    1.401400   0.000000
    13  H    5.074276   4.127917   0.000000
    14  H    3.918930   2.578650   4.280590   0.000000
    15  H    3.872800   3.396345   1.871400   4.671787   0.000000
    16  H    2.146700   1.070000   4.671787   1.871400   4.280590
    17  Cl   8.294174   6.910901   4.890332   4.890332   6.623817
    18  Cl   2.743718   4.048303   6.623817   6.623817   4.890332
    19  Cl   6.797295   5.440665   5.632800   2.879094   6.765486
    20  Cl   1.760000   2.743718   6.765486   4.725732   5.632800
    21  Cl   7.713260   6.549198   2.879094   5.632800   4.725732
    22  Cl   4.048303   4.562800   4.725732   6.765486   2.879094
                   16         17         18         19         20
    16  H    0.000000
    17  Cl   6.623817   0.000000
    18  Cl   4.890332  10.665600   0.000000
    19  Cl   4.725732   3.161400   9.488480   0.000000
    20  Cl   2.879094   9.488480   3.161400   7.504200   0.000000
    21  Cl   6.765486   3.161400   9.488480   5.475705   9.289584
    22  Cl   5.632800   9.488480   3.161400   9.289584   5.475705
                   21         22
    21  Cl   0.000000
    22  Cl   7.504200   0.000000
 Stoichiometry    C12H4Cl6
 Framework group  C1[X(C12H4Cl6)]
 Deg. of freedom    60
 Full point group                 C1      NOp   1
 Largest Abelian subgroup         C1      NOp   1
 Largest concise Abelian subgroup C1      NOp   1
                         Standard orientation:                         
 ---------------------------------------------------------------------
 Center     Atomic      Atomic             Coordinates (Angstroms)
 Number     Number       Type             X           Y           Z
 ---------------------------------------------------------------------
      1          6           0        0.770000    0.000000    0.000002
      2          6           0        1.470700    1.213648    0.000001
      3          6           0        2.872100    1.213648   -0.000001
      4          6           0        3.572800    0.000000   -0.000001
      5          6           0        2.872100   -1.213648    0.000002
      6          6           0        1.470700   -1.213648    0.000004
      7          6           0       -0.770000    0.000000    0.000003
      8          6           0       -1.470700    1.213648    0.000004
      9          6           0       -2.872100    1.213648    0.000003
     10          6           0       -3.572800    0.000000    0.000001
     11          6           0       -2.872100   -1.213648    0.000000
     12          6           0       -1.470700   -1.213648    0.000001
     13          1           0        0.935700    2.140295   -0.000001
     14          1           0        0.935700   -2.140295    0.000006
     15          1           0       -0.935700    2.140295    0.000002
     16          1           0       -0.935700   -2.140295   -0.000001
     17         17           0        5.332800    0.000000   -0.000004
     18         17           0       -5.332800    0.000000   -0.000002
     19         17           0        3.752100   -2.737853    0.000006
     20         17           0       -3.752100   -2.737853   -0.000006
     21         17           0        3.752100    2.737853   -0.000004
     22         17           0       -3.752100    2.737853    0.000004
 ---------------------------------------------------------------------
 Rotational constants (GHZ):           0.4182380           0.1056829           0.0843650
 Standard basis: 6-311+G(d,p) (5D, 7F)
 There are   486 symmetry adapted cartesian basis functions of A   symmetry.
 There are   468 symmetry adapted basis functions of A   symmetry.
   468 basis functions,   782 primitive gaussians,   486 cartesian basis functions
    89 alpha electrons       89 beta electrons
       nuclear repulsion energy      1908.3951665461 Hartrees.
 NAtoms=   22 NActive=   22 NUniq=   22 SFac= 1.00D+00 NAtFMM=   60 NAOKFM=F Big=F
 Integral buffers will be    131072 words long.
 Raffenetti 2 integral format.
 Two-electron integral symmetry is turned on.
 One-electron integrals computed using PRISM.
 NBasis=   468 RedAO= T EigKep=  1.70D-06  NBF=   468
 NBsUse=   461 1.00D-06 EigRej=  7.51D-07 NBFU=   461
 ExpMin= 4.38D-02 ExpMax= 1.06D+05 ExpMxC= 3.62D+03 IAcc=3 IRadAn=         5 AccDes= 0.00D+00
 Harris functional with IExCor=  402 and IRadAn=       5 diagonalized for initial guess.
 HarFok:  IExCor=  402 AccDes= 0.00D+00 IRadAn=         5 IDoV= 1 UseB2=F ITyADJ=14
 ICtDFT=  3500011 ScaDFX=  1.000000  1.000000  1.000000  1.000000
 FoFCou: FMM=F IPFlag=           0 FMFlag=      100000 FMFlg1=           0
         NFxFlg=           0 DoJE=T BraDBF=F KetDBF=T FulRan=T
         wScrn=  0.000000 ICntrl=       500 IOpCl=  0 I1Cent=   200000004 NGrid=           0
         NMat0=    1 NMatS0=      1 NMatT0=    0 NMatD0=    1 NMtDS0=    0 NMtDT0=    0
 Petite list used in FoFCou.
 Requested convergence on RMS density matrix=1.00D-08 within  32 cycles.
 Requested convergence on MAX density matrix=1.00D-06.
 Requested convergence on             energy=1.00D-06.
 No special actions if energy rises.
 SCF Done:  E(RB3LYP) =  -3221.12598769     A.U. after   15 cycles
            NFock= 15  Conv=0.13D-08     -V/T= 2.0027
 QCSCF skips out because SCF is already converged.

 **********************************************************************

            Population analysis using the SCF Density.

 **********************************************************************

 Orbital symmetries:
       Occupied  (A) (A) (A) (A) (A) (A) (A) (A) (A) (A) (A) (A)
                 (A) (A) (A) (A) (A) (A) (A) (A) (A) (A) (A) (A)
                 (A) (A) (A) (A) (A) (A) (A) (A) (A) (A) (A) (A)
                 (A) (A) (A) (A) (A) (A) (A) (A) (A) (A) (A) (A)
                 (A) (A) (A) (A) (A) (A) (A) (A) (A) (A) (A) (A)
                 (A) (A) (A) (A) (A) (A) (A) (A) (A) (A) (A) (A)
                 (A) (A) (A) (A) (A) (A) (A) (A) (A) (A) (A) (A)
                 (A) (A) (A) (A) (A)
       Virtual   (A) (A) (A) (A) (A) (A) (A) (A) (A) (A) (A) (A)
                 (A) (A) (A) (A) (A) (A) (A) (A) (A) (A) (A) (A)
                 (A) (A) (A) (A) (A) (A) (A) (A) (A) (A) (A) (A)
                 (A) (A) (A) (A) (A) (A) (A) (A) (A) (A) (A) (A)
                 (A) (A) (A) (A) (A) (A) (A) (A) (A) (A) (A) (A)
                 (A) (A) (A) (A) (A) (A) (A) (A) (A) (A) (A) (A)
                 (A) (A) (A) (A) (A) (A) (A) (A) (A) (A) (A) (A)
                 (A) (A) (A) (A) (A) (A) (A) (A) (A) (A) (A) (A)
                 (A) (A) (A) (A) (A) (A) (A) (A) (A) (A) (A) (A)
                 (A) (A) (A) (A) (A) (A) (A) (A) (A) (A) (A) (A)
                 (A) (A) (A) (A) (A) (A) (A) (A) (A) (A) (A) (A)
                 (A) (A) (A) (A) (A) (A) (A) (A) (A) (A) (A) (A)
                 (A) (A) (A) (A) (A) (A) (A) (A) (A) (A) (A) (A)
                 (A) (A) (A) (A) (A) (A) (A) (A) (A) (A) (A) (A)
                 (A) (A) (A) (A) (A) (A) (A) (A) (A) (A) (A) (A)
                 (A) (A) (A) (A) (A) (A) (A) (A) (A) (A) (A) (A)
                 (A) (A) (A) (A) (A) (A) (A) (A) (A) (A) (A) (A)
                 (A) (A) (A) (A) (A) (A) (A) (A) (A) (A) (A) (A)
                 (A) (A) (A) (A) (A) (A) (A) (A) (A) (A) (A) (A)
                 (A) (A) (A) (A) (A) (A) (A) (A) (A) (A) (A) (A)
                 (A) (A) (A) (A) (A) (A) (A) (A) (A) (A) (A) (A)
                 (A) (A) (A) (A) (A) (A) (A) (A) (A) (A) (A) (A)
                 (A) (A) (A) (A) (A) (A) (A) (A) (A) (A) (A) (A)
                 (A) (A) (A) (A) (A) (A) (A) (A) (A) (A) (A) (A)
                 (A) (A) (A) (A) (A) (A) (A) (A) (A) (A) (A) (A)
                 (A) (A) (A) (A) (A) (A) (A) (A) (A) (A) (A) (A)
                 (A) (A) (A) (A) (A) (A) (A) (A) (A) (A) (A) (A)
                 (A) (A) (A) (A) (A) (A) (A) (A) (A) (A) (A) (A)
                 (A) (A) (A) (A) (A) (A) (A) (A) (A) (A) (A) (A)
                 (A) (A) (A) (A) (A) (A) (A) (A) (A) (A) (A) (A)
                 (A) (A) (A) (A) (A) (A) (A) (A) (A) (A) (A) (A)
 The electronic state is 1-A.
 Alpha  occ. eigenvalues -- -101.58097-101.58097-101.58097-101.58097-101.57807
 Alpha  occ. eigenvalues -- -101.57807 -10.28224 -10.28223 -10.28215 -10.28215
 Alpha  occ. eigenvalues --  -10.28084 -10.28084 -10.24106 -10.24085 -10.22471
 Alpha  occ. eigenvalues --  -10.22471 -10.22470 -10.22469  -9.49518  -9.49518
 Alpha  occ. eigenvalues --   -9.49517  -9.49517  -9.49231  -9.49231  -7.26017
 Alpha  occ. eigenvalues --   -7.26017  -7.26017  -7.26017  -7.25740  -7.25740
 Alpha  occ. eigenvalues --   -7.24995  -7.24995  -7.24995  -7.24995  -7.24934
 Alpha  occ. eigenvalues --   -7.24934  -7.24934  -7.24934  -7.24714  -7.24714
 Alpha  occ. eigenvalues --   -7.24631  -7.24631  -0.95353  -0.94947  -0.90106
 Alpha  occ. eigenvalues --   -0.90057  -0.88873  -0.87161  -0.86346  -0.84776
 Alpha  occ. eigenvalues --   -0.78788  -0.77910  -0.76415  -0.74776  -0.66231
 Alpha  occ. eigenvalues --   -0.66092  -0.63585  -0.61285  -0.56772  -0.54850
 Alpha  occ. eigenvalues --   -0.52548  -0.51160  -0.50773  -0.48295  -0.48158
 Alpha  occ. eigenvalues --   -0.46900  -0.46439  -0.45975  -0.45084  -0.43218
 Alpha  occ. eigenvalues --   -0.43172  -0.40995  -0.40271  -0.38962  -0.38898
 Alpha  occ. eigenvalues --   -0.38819  -0.36022  -0.35767  -0.35602  -0.35374
 Alpha  occ. eigenvalues --   -0.34828  -0.34391  -0.33902  -0.32096  -0.32001
 Alpha  occ. eigenvalues --   -0.29457  -0.28420  -0.27808  -0.26041
 Alpha virt. eigenvalues --   -0.08712  -0.07448  -0.05093  -0.04743  -0.04695
 Alpha virt. eigenvalues --   -0.02354  -0.01134   0.00089   0.00524   0.00845
 Alpha virt. eigenvalues --    0.00882   0.01813   0.01994   0.02770   0.02788
 Alpha virt. eigenvalues --    0.03950   0.04066   0.05557   0.05594   0.06407
 Alpha virt. eigenvalues --    0.06462   0.06501   0.06512   0.07841   0.08264
 Alpha virt. eigenvalues --    0.08364   0.08418   0.08455   0.08901   0.09060
 Alpha virt. eigenvalues --    0.09222   0.10082   0.10764   0.10918   0.10958
 Alpha virt. eigenvalues --    0.11133   0.11613   0.12417   0.12805   0.13103
 Alpha virt. eigenvalues --    0.13329   0.13465   0.13788   0.13898   0.14649
 Alpha virt. eigenvalues --    0.15437   0.15834   0.15992   0.16927   0.17119
 Alpha virt. eigenvalues --    0.17219   0.17400   0.17573   0.17709   0.17759
 Alpha virt. eigenvalues --    0.17879   0.18213   0.18779   0.19266   0.19768
 Alpha virt. eigenvalues --    0.20190   0.21744   0.22225   0.22259   0.22335
 Alpha virt. eigenvalues --    0.22359   0.22434   0.22542   0.24648   0.24822
 Alpha virt. eigenvalues --    0.25019   0.25233   0.26090   0.26133   0.27105
 Alpha virt. eigenvalues --    0.27608   0.27755   0.28024   0.28437   0.30501
 Alpha virt. eigenvalues --    0.31188   0.31552   0.31865   0.32103   0.32467
 Alpha virt. eigenvalues --    0.32498   0.34756   0.35117   0.35612   0.38628
 Alpha virt. eigenvalues --    0.39886   0.42396   0.42578   0.42903   0.43038
 Alpha virt. eigenvalues --    0.43042   0.44661   0.44698   0.44812   0.44988
 Alpha virt. eigenvalues --    0.45062   0.45565   0.45890   0.46081   0.47035
 Alpha virt. eigenvalues --    0.47397   0.47607   0.47693   0.48092   0.49405
 Alpha virt. eigenvalues --    0.50107   0.50573   0.51205   0.52020   0.52283
 Alpha virt. eigenvalues --    0.53715   0.55655   0.56997   0.57226   0.57374
 Alpha virt. eigenvalues --    0.58158   0.58717   0.60125   0.60205   0.60459
 Alpha virt. eigenvalues --    0.60752   0.62271   0.63091   0.63116   0.63386
 Alpha virt. eigenvalues --    0.63398   0.64181   0.64757   0.65358   0.67989
 Alpha virt. eigenvalues --    0.68653   0.69652   0.70617   0.71828   0.74117
 Alpha virt. eigenvalues --    0.75149   0.76660   0.81003   0.81903   0.82540
 Alpha virt. eigenvalues --    0.82707   0.83184   0.83455   0.83540   0.83885
 Alpha virt. eigenvalues --    0.84081   0.84330   0.84382   0.84393   0.84529
 Alpha virt. eigenvalues --    0.84893   0.85261   0.85634   0.85957   0.86203
 Alpha virt. eigenvalues --    0.87338   0.87789   0.87924   0.88903   0.90095
 Alpha virt. eigenvalues --    0.90523   0.90724   0.91740   0.91986   0.92344
 Alpha virt. eigenvalues --    0.93021   0.93074   0.93296   0.93645   0.93914
 Alpha virt. eigenvalues --    0.94127   0.94725   0.94727   0.96697   0.96844
 Alpha virt. eigenvalues --    0.97903   0.98027   0.99177   1.02377   1.02983
 Alpha virt. eigenvalues --    1.05031   1.05046   1.05066   1.08194   1.09703
 Alpha virt. eigenvalues --    1.10038   1.12442   1.13923   1.19429   1.21540
 Alpha virt. eigenvalues --    1.21567   1.22117   1.22422   1.22605   1.24717
 Alpha virt. eigenvalues --    1.25702   1.25859   1.27192   1.27595   1.27720
 Alpha virt. eigenvalues --    1.28351   1.29076   1.31406   1.32600   1.36689
 Alpha virt. eigenvalues --    1.37133   1.38347   1.42273   1.45687   1.47604
 Alpha virt. eigenvalues --    1.51990   1.52056   1.52735   1.53299   1.57692
 Alpha virt. eigenvalues --    1.57963   1.58746   1.59576   1.63567   1.63715
 Alpha virt. eigenvalues --    1.66454   1.67737   1.70351   1.75045   1.77421
 Alpha virt. eigenvalues --    1.77572   1.80204   1.82069   1.82260   1.82956
 Alpha virt. eigenvalues --    1.83587   1.85651   1.86042   1.87025   1.90740
 Alpha virt. eigenvalues --    1.92259   1.93075   1.94631   1.94920   1.95541
 Alpha virt. eigenvalues --    1.95932   1.99790   2.00476   2.02023   2.12128
 Alpha virt. eigenvalues --    2.12506   2.16805   2.20876   2.21014   2.22191
 Alpha virt. eigenvalues --    2.23105   2.23757   2.24127   2.24792   2.24808
 Alpha virt. eigenvalues --    2.26411   2.28264   2.28545   2.29380   2.30465
 Alpha virt. eigenvalues --    2.31600   2.31817   2.33066   2.35545   2.41142
 Alpha virt. eigenvalues --    2.41549   2.41672   2.43123   2.45011   2.46286
 Alpha virt. eigenvalues --    2.47742   2.50064   2.50405   2.54382   2.54403
 Alpha virt. eigenvalues --    2.56250   2.57709   2.58901   2.60456   2.62514
 Alpha virt. eigenvalues --    2.65811   2.66590   2.70718   2.71471   2.71727
 Alpha virt. eigenvalues --    2.71821   2.73194   2.73582   2.76491   2.79965
 Alpha virt. eigenvalues --    2.80055   2.81178   2.83658   2.89785   2.92378
 Alpha virt. eigenvalues --    2.93309   2.99366   3.03425   3.03889   3.05298
 Alpha virt. eigenvalues --    3.10812   3.11199   3.13161   3.14874   3.18258
 Alpha virt. eigenvalues --    3.18888   3.18933   3.21329   3.32144   3.37583
 Alpha virt. eigenvalues --    3.39016   3.41067   3.59621   3.59626   3.69271
 Alpha virt. eigenvalues --    3.69319   3.71936   3.73199   3.96992   4.03074
 Alpha virt. eigenvalues --    4.06136   4.18591   4.43909   4.77553   4.83073
 Alpha virt. eigenvalues --    9.70637   9.73911   9.77572   9.77830   9.79830
 Alpha virt. eigenvalues --    9.79966  23.33251  23.47457  23.81902  23.82935
 Alpha virt. eigenvalues --   23.82966  23.84330  23.93391  23.94419  24.00144
 Alpha virt. eigenvalues --   24.01839  24.07889  24.08253  25.75450  25.76223
 Alpha virt. eigenvalues --   25.80306  25.80529  25.87437  25.88846  26.09203
 Alpha virt. eigenvalues --   26.09468  26.11140  26.12116  26.16001  26.19381
 Alpha virt. eigenvalues --   26.45092  26.46965  26.60490  26.64218  26.80522
 Alpha virt. eigenvalues --   26.83502 215.69151 215.72674 215.76979 215.77262
 Alpha virt. eigenvalues --  215.79511 215.79705
          Condensed to atoms (all electrons):
               1          2          3          4          5          6
     1  C   15.231325  -0.877930  -2.507983   0.701203  -2.507983  -0.877930
     2  C   -0.877930  14.650929   1.930431  -6.515737   1.423610  -1.546385
     3  C   -2.507983   1.930431  13.166754  -3.385660  -1.783017   1.423610
     4  C    0.701203  -6.515737  -3.385660  28.296325  -3.385660  -6.515737
     5  C   -2.507983   1.423610  -1.783017  -3.385660  13.166754   1.930431
     6  C   -0.877930  -1.546385   1.423610  -6.515737   1.930431  14.650929
     7  C    4.678587  -0.534796  -1.460260  -2.489212  -1.460260  -0.534796
     8  C   -0.534797   3.053119   0.312354  -0.179636  -0.807745  -4.868098
     9  C   -1.460260   0.312354   0.179687   0.017814  -0.238621  -0.807745
    10  C   -2.489212  -0.179636   0.017814   0.095944   0.017815  -0.179636
    11  C   -1.460260  -0.807745  -0.238621   0.017814   0.179687   0.312354
    12  C   -0.534796  -4.868097  -0.807745  -0.179636   0.312354   3.053118
    13  H    0.044702   0.289343  -0.100777   0.001518  -0.012605  -0.011132
    14  H    0.044702  -0.011132  -0.012605   0.001518  -0.100777   0.289343
    15  H    0.050324   0.037918  -0.010434   0.001938   0.002781   0.042026
    16  H    0.050324   0.042026   0.002781   0.001938  -0.010434   0.037918
    17  Cl  -0.062255  -0.384629   0.220896  -0.285962   0.220896  -0.384630
    18  Cl  -0.054388  -0.051866  -0.000999  -0.004155  -0.000999  -0.051866
    19  Cl  -0.604965   0.179655   0.060144  -0.153224  -0.531999   0.510677
    20  Cl  -0.118428  -0.072496  -0.012392  -0.004079   0.004767   0.033886
    21  Cl  -0.604965   0.510677  -0.531999  -0.153224   0.060144   0.179655
    22  Cl  -0.118428   0.033886   0.004767  -0.004079  -0.012392  -0.072496
               7          8          9         10         11         12
     1  C    4.678587  -0.534797  -1.460260  -2.489212  -1.460260  -0.534796
     2  C   -0.534796   3.053119   0.312354  -0.179636  -0.807745  -4.868097
     3  C   -1.460260   0.312354   0.179687   0.017814  -0.238621  -0.807745
     4  C   -2.489212  -0.179636   0.017814   0.095944   0.017814  -0.179636
     5  C   -1.460260  -0.807745  -0.238621   0.017815   0.179687   0.312354
     6  C   -0.534796  -4.868098  -0.807745  -0.179636   0.312354   3.053118
     7  C   15.231325  -0.877930  -2.507983   0.701203  -2.507983  -0.877930
     8  C   -0.877930  14.650929   1.930431  -6.515737   1.423610  -1.546386
     9  C   -2.507983   1.930431  13.166753  -3.385659  -1.783017   1.423610
    10  C    0.701203  -6.515737  -3.385659  28.296322  -3.385660  -6.515736
    11  C   -2.507983   1.423610  -1.783017  -3.385660  13.166754   1.930431
    12  C   -0.877930  -1.546386   1.423610  -6.515736   1.930431  14.650928
    13  H    0.050324   0.037918  -0.010434   0.001938   0.002781   0.042026
    14  H    0.050324   0.042026   0.002781   0.001938  -0.010434   0.037918
    15  H    0.044702   0.289343  -0.100777   0.001518  -0.012605  -0.011132
    16  H    0.044702  -0.011132  -0.012605   0.001518  -0.100777   0.289343
    17  Cl  -0.054388  -0.051866  -0.000999  -0.004155  -0.000999  -0.051866
    18  Cl  -0.062255  -0.384629   0.220896  -0.285962   0.220896  -0.384629
    19  Cl  -0.118428  -0.072496  -0.012392  -0.004079   0.004767   0.033886
    20  Cl  -0.604965   0.179655   0.060144  -0.153224  -0.531999   0.510677
    21  Cl  -0.118428   0.033886   0.004767  -0.004079  -0.012392  -0.072496
    22  Cl  -0.604965   0.510677  -0.531999  -0.153224   0.060144   0.179655
              13         14         15         16         17         18
     1  C    0.044702   0.044702   0.050324   0.050324  -0.062255  -0.054388
     2  C    0.289343  -0.011132   0.037918   0.042026  -0.384629  -0.051866
     3  C   -0.100777  -0.012605  -0.010434   0.002781   0.220896  -0.000999
     4  C    0.001518   0.001518   0.001938   0.001938  -0.285962  -0.004155
     5  C   -0.012605  -0.100777   0.002781  -0.010434   0.220896  -0.000999
     6  C   -0.011132   0.289343   0.042026   0.037918  -0.384630  -0.051866
     7  C    0.050324   0.050324   0.044702   0.044702  -0.054388  -0.062255
     8  C    0.037918   0.042026   0.289343  -0.011132  -0.051866  -0.384629
     9  C   -0.010434   0.002781  -0.100777  -0.012605  -0.000999   0.220896
    10  C    0.001938   0.001938   0.001518   0.001518  -0.004155  -0.285962
    11  C    0.002781  -0.010434  -0.012605  -0.100777  -0.000999   0.220896
    12  C    0.042026   0.037918  -0.011132   0.289343  -0.051866  -0.384629
    13  H    0.527677  -0.000050   0.004245  -0.000122  -0.001635   0.000166
    14  H   -0.000050   0.527677  -0.000122   0.004245  -0.001635   0.000166
    15  H    0.004245  -0.000122   0.527677  -0.000050   0.000166  -0.001635
    16  H   -0.000122   0.004245  -0.000050   0.527677   0.000166  -0.001635
    17  Cl  -0.001635  -0.001635   0.000166   0.000166  17.568990  -0.000017
    18  Cl   0.000166   0.000166  -0.001635  -0.001635  -0.000017  17.568989
    19  Cl   0.000997  -0.013969   0.000052  -0.000428  -0.197538   0.000056
    20  Cl   0.000052  -0.000428   0.000997  -0.013969   0.000056  -0.197538
    21  Cl  -0.013969   0.000997  -0.000428   0.000052  -0.197538   0.000056
    22  Cl  -0.000428   0.000052  -0.013969   0.000997   0.000056  -0.197538
              19         20         21         22
     1  C   -0.604965  -0.118428  -0.604965  -0.118428
     2  C    0.179655  -0.072496   0.510677   0.033886
     3  C    0.060144  -0.012392  -0.531999   0.004767
     4  C   -0.153224  -0.004079  -0.153224  -0.004079
     5  C   -0.531999   0.004767   0.060144  -0.012392
     6  C    0.510677   0.033886   0.179655  -0.072496
     7  C   -0.118428  -0.604965  -0.118428  -0.604965
     8  C   -0.072496   0.179655   0.033886   0.510677
     9  C   -0.012392   0.060144   0.004767  -0.531999
    10  C   -0.004079  -0.153224  -0.004079  -0.153224
    11  C    0.004767  -0.531999  -0.012392   0.060144
    12  C    0.033886   0.510677  -0.072496   0.179655
    13  H    0.000997   0.000052  -0.013969  -0.000428
    14  H   -0.013969  -0.000428   0.000997   0.000052
    15  H    0.000052   0.000997  -0.000428  -0.013969
    16  H   -0.000428  -0.013969   0.000052   0.000997
    17  Cl  -0.197538   0.000056  -0.197538   0.000056
    18  Cl   0.000056  -0.197538   0.000056  -0.197538
    19  Cl  17.387102  -0.000033   0.000778  -0.000187
    20  Cl  -0.000033  17.387102  -0.000187   0.000778
    21  Cl   0.000778  -0.000187  17.387102  -0.000033
    22  Cl  -0.000187   0.000778  -0.000033  17.387102
 Mulliken charges:
               1
     1  C    0.013415
     2  C   -0.613496
     3  C   -0.466742
     4  C    0.119991
     5  C   -0.466742
     6  C   -0.613495
     7  C    0.013415
     8  C   -0.613495
     9  C   -0.466742
    10  C    0.119991
    11  C   -0.466742
    12  C   -0.613495
    13  H    0.147466
    14  H    0.147466
    15  H    0.147466
    16  H    0.147466
    17  Cl   0.668888
    18  Cl   0.668888
    19  Cl   0.531625
    20  Cl   0.531625
    21  Cl   0.531625
    22  Cl   0.531625
 Sum of Mulliken charges =  -0.00000
 Mulliken charges with hydrogens summed into heavy atoms:
               1
     1  C    0.013415
     2  C   -0.466030
     3  C   -0.466742
     4  C    0.119991
     5  C   -0.466742
     6  C   -0.466030
     7  C    0.013415
     8  C   -0.466030
     9  C   -0.466742
    10  C    0.119991
    11  C   -0.466742
    12  C   -0.466030
    17  Cl   0.668888
    18  Cl   0.668888
    19  Cl   0.531625
    20  Cl   0.531625
    21  Cl   0.531625
    22  Cl   0.531625
 Electronic spatial extent (au):  <R**2>=          10822.2094
 Charge=             -0.0000 electrons
 Dipole moment (field-independent basis, Debye):
    X=             -0.0000    Y=             -0.0000    Z=              0.0000  Tot=              0.0000
 Quadrupole moment (field-independent basis, Debye-Ang):
   XX=           -160.9716   YY=           -142.3692   ZZ=           -147.5117
   XY=              0.0000   XZ=              0.0000   YZ=             -0.0000
 Traceless Quadrupole moment (field-independent basis, Debye-Ang):
   XX=            -10.6874   YY=              7.9150   ZZ=              2.7725
   XY=              0.0000   XZ=              0.0000   YZ=             -0.0000
 Octapole moment (field-independent basis, Debye-Ang**2):
  XXX=              0.0000  YYY=             -0.0000  ZZZ=             -0.0001  XYY=             -0.0000
  XXY=              0.0000  XXZ=             -0.0001  XZZ=             -0.0000  YZZ=             -0.0000
  YYZ=             -0.0000  XYZ=             -0.0000
 Hexadecapole moment (field-independent basis, Debye-Ang**3):
 XXXX=         -11075.4718 YYYY=          -2802.4961 ZZZZ=           -170.8851 XXXY=              0.0000
 XXXZ=              0.0002 YYYX=              0.0000 YYYZ=              0.0000 ZZZX=              0.0001
 ZZZY=              0.0000 XXYY=          -2309.3522 XXZZ=          -1899.0747 YYZZ=           -525.9967
 XXYZ=              0.0000 YYXZ=              0.0001 ZZXY=              0.0000
 N-N= 1.908395166546D+03 E-N=-1.144484278478D+04  KE= 3.212358396892D+03
 Calling FoFJK, ICntrl=      2127 FMM=F ISym2X=0 I1Cent= 0 IOpClX= 0 NMat=1 NMatS=1 NMatT=0.
 ***** Axes restored to original set *****
 -------------------------------------------------------------------
 Center     Atomic                   Forces (Hartrees/Bohr)
 Number     Number              X              Y              Z
 -------------------------------------------------------------------
      1        6          -0.011751000   -0.020076766    0.000100716
      2        6          -0.002764579    0.016692933    0.004046004
      3        6          -0.003065443   -0.006283305   -0.000170028
      4        6           0.007231978    0.012356109   -0.000062206
      5        6          -0.003976486   -0.005748063    0.000230558
      6        6           0.015890512    0.005732887   -0.004158453
      7        6           0.011751013    0.020076767   -0.000100688
      8        6          -0.015890457   -0.005732920    0.004158601
      9        6           0.003976470    0.005748070   -0.000230598
     10        6          -0.007232006   -0.012356094    0.000062121
     11        6           0.003065529    0.006283260    0.000170282
     12        6           0.002764572   -0.016692942   -0.004046001
     13        1           0.006849577   -0.002276080   -0.002684146
     14        1          -0.005326881    0.004877708    0.002670991
     15        1           0.005326828   -0.004877678   -0.002671148
     16        1          -0.006849587    0.002276088    0.002684118
     17       17          -0.004363057   -0.007454381    0.000037437
     18       17           0.004363037    0.007454394   -0.000037499
     19       17           0.000439904   -0.008791550   -0.001796023
     20       17           0.007872773    0.003907773   -0.001859927
     21       17          -0.007872810   -0.003907752    0.001859816
     22       17          -0.000439886    0.008791541    0.001796075
 -------------------------------------------------------------------
 Cartesian Forces:  Max     0.020076767 RMS     0.007393543

 GradGradGradGradGradGradGradGradGradGradGradGradGradGradGradGradGradGrad
 Berny optimization.
 FormGI is forming the generalized inverse of G from B-inverse, IUseBI=4.
 Internal  Forces:  Max     0.017239561 RMS     0.004773024
 Search for a local minimum.
 Step number   1 out of a maximum of  121
 All quantities printed in internal units (Hartrees-Bohrs-Radians)
 Mixed Optimization -- RFO/linear search
 Second derivative matrix not updated -- first step.
 ITU=  0
     Eigenvalues ---    0.00237   0.01506   0.01506   0.02070   0.02070
     Eigenvalues ---    0.02070   0.02070   0.02070   0.02070   0.02070
     Eigenvalues ---    0.02070   0.02070   0.02070   0.02070   0.02070
     Eigenvalues ---    0.02070   0.02070   0.02070   0.02070   0.16000
     Eigenvalues ---    0.16000   0.16000   0.16000   0.23478   0.23478
     Eigenvalues ---    0.23493   0.23493   0.25000   0.25000   0.25000
     Eigenvalues ---    0.25000   0.25000   0.25000   0.25000   0.25000
     Eigenvalues ---    0.25000   0.25000   0.28519   0.29539   0.29539
     Eigenvalues ---    0.29539   0.29539   0.29539   0.29539   0.37230
     Eigenvalues ---    0.37230   0.37230   0.37230   0.41554   0.41554
     Eigenvalues ---    0.41716   0.41716   0.45389   0.45389   0.45389
     Eigenvalues ---    0.45389   0.45389   0.45389   0.45389   0.45389
 RFO step:  Lambda=-8.74239759D-03 EMin= 2.36824176D-03
 Linear search not attempted -- first point.
 Iteration  1 RMS(Cart)=  0.02896212 RMS(Int)=  0.00045797
 Iteration  2 RMS(Cart)=  0.00053589 RMS(Int)=  0.00000091
 Iteration  3 RMS(Cart)=  0.00000012 RMS(Int)=  0.00000091
 Variable       Old X    -DE/DX   Delta X   Delta X   Delta X     New X
                                 (Linear)    (Quad)   (Total)
    R1        2.64826  -0.00237   0.00000  -0.00531  -0.00530   2.64296
    R2        2.64826  -0.00237   0.00000  -0.00531  -0.00530   2.64296
    R3        2.91018  -0.01724   0.00000  -0.05865  -0.05865   2.85153
    R4        2.64826  -0.01149   0.00000  -0.02483  -0.02483   2.62343
    R5        2.02201   0.00579   0.00000   0.01519   0.01519   2.03719
    R6        2.64826  -0.00216   0.00000  -0.00448  -0.00449   2.64378
    R7        3.32592  -0.00814   0.00000  -0.02678  -0.02678   3.29914
    R8        2.64826  -0.00216   0.00000  -0.00448  -0.00449   2.64378
    R9        3.32592  -0.00864   0.00000  -0.02840  -0.02840   3.29752
   R10        2.64826  -0.01149   0.00000  -0.02483  -0.02483   2.62343
   R11        3.32592  -0.00814   0.00000  -0.02678  -0.02678   3.29914
   R12        2.02201   0.00579   0.00000   0.01519   0.01519   2.03719
   R13        2.64826  -0.00237   0.00000  -0.00531  -0.00530   2.64296
   R14        2.64826  -0.00237   0.00000  -0.00531  -0.00530   2.64296
   R15        2.64826  -0.01149   0.00000  -0.02483  -0.02483   2.62343
   R16        2.02201   0.00579   0.00000   0.01519   0.01519   2.03719
   R17        2.64826  -0.00216   0.00000  -0.00448  -0.00449   2.64378
   R18        3.32592  -0.00814   0.00000  -0.02678  -0.02678   3.29914
   R19        2.64826  -0.00216   0.00000  -0.00448  -0.00449   2.64378
   R20        3.32592  -0.00864   0.00000  -0.02840  -0.02840   3.29752
   R21        2.64826  -0.01149   0.00000  -0.02483  -0.02483   2.62343
   R22        3.32592  -0.00814   0.00000  -0.02678  -0.02678   3.29914
   R23        2.02201   0.00579   0.00000   0.01519   0.01519   2.03719
    A1        2.09440  -0.00797   0.00000  -0.03208  -0.03208   2.06231
    A2        2.09440   0.00399   0.00000   0.01604   0.01604   2.11044
    A3        2.09440   0.00399   0.00000   0.01604   0.01604   2.11044
    A4        2.09440   0.00401   0.00000   0.01646   0.01646   2.11086
    A5        2.09440   0.00313   0.00000   0.02221   0.02221   2.11661
    A6        2.09440  -0.00714   0.00000  -0.03867  -0.03867   2.05572
    A7        2.09440   0.00405   0.00000   0.01532   0.01532   2.10972
    A8        2.09440  -0.00833   0.00000  -0.03204  -0.03204   2.06235
    A9        2.09440   0.00429   0.00000   0.01672   0.01672   2.11112
   A10        2.09440  -0.00815   0.00000  -0.03148  -0.03149   2.06291
   A11        2.09440   0.00407   0.00000   0.01574   0.01574   2.11014
   A12        2.09440   0.00407   0.00000   0.01574   0.01574   2.11014
   A13        2.09440   0.00405   0.00000   0.01532   0.01532   2.10972
   A14        2.09440   0.00429   0.00000   0.01672   0.01672   2.11112
   A15        2.09440  -0.00833   0.00000  -0.03204  -0.03204   2.06235
   A16        2.09440   0.00401   0.00000   0.01646   0.01646   2.11086
   A17        2.09440   0.00313   0.00000   0.02221   0.02221   2.11661
   A18        2.09440  -0.00714   0.00000  -0.03867  -0.03867   2.05572
   A19        2.09440   0.00399   0.00000   0.01604   0.01604   2.11044
   A20        2.09440   0.00399   0.00000   0.01604   0.01604   2.11044
   A21        2.09440  -0.00797   0.00000  -0.03208  -0.03208   2.06231
   A22        2.09440   0.00401   0.00000   0.01646   0.01646   2.11086
   A23        2.09440   0.00313   0.00000   0.02221   0.02221   2.11661
   A24        2.09440  -0.00714   0.00000  -0.03867  -0.03867   2.05572
   A25        2.09440   0.00405   0.00000   0.01532   0.01532   2.10972
   A26        2.09440  -0.00833   0.00000  -0.03204  -0.03204   2.06235
   A27        2.09440   0.00429   0.00000   0.01672   0.01672   2.11112
   A28        2.09440  -0.00815   0.00000  -0.03148  -0.03149   2.06291
   A29        2.09440   0.00407   0.00000   0.01574   0.01574   2.11014
   A30        2.09440   0.00407   0.00000   0.01574   0.01574   2.11014
   A31        2.09440   0.00405   0.00000   0.01532   0.01532   2.10972
   A32        2.09440   0.00429   0.00000   0.01672   0.01672   2.11112
   A33        2.09440  -0.00833   0.00000  -0.03204  -0.03204   2.06235
   A34        2.09440   0.00401   0.00000   0.01646   0.01646   2.11086
   A35        2.09440   0.00313   0.00000   0.02221   0.02221   2.11661
   A36        2.09440  -0.00714   0.00000  -0.03867  -0.03867   2.05572
    D1        0.00000  -0.00000   0.00000  -0.00000  -0.00000   0.00000
    D2        3.14159   0.00000   0.00000   0.00000   0.00000   3.14159
    D3       -3.14159  -0.00000   0.00000  -0.00000  -0.00000  -3.14159
    D4       -0.00000   0.00000   0.00000   0.00000   0.00000  -0.00000
    D5       -0.00000   0.00000   0.00000   0.00000   0.00000  -0.00000
    D6        3.14159  -0.00000   0.00000  -0.00000  -0.00000   3.14159
    D7        3.14159   0.00000   0.00000   0.00000   0.00000   3.14159
    D8        0.00000  -0.00000   0.00000  -0.00000  -0.00000  -0.00000
    D9       -0.00000  -0.00000   0.00000  -0.00000  -0.00000  -0.00000
   D10        3.14159  -0.00000   0.00000  -0.00000  -0.00000   3.14159
   D11        3.14159  -0.00000   0.00000  -0.00000  -0.00000   3.14159
   D12       -0.00000   0.00000   0.00000  -0.00000  -0.00000  -0.00000
   D13        0.00000  -0.00000   0.00000  -0.00000  -0.00000  -0.00000
   D14        3.14159   0.00000   0.00000   0.00000   0.00000   3.14159
   D15       -3.14159  -0.00000   0.00000  -0.00000  -0.00000  -3.14159
   D16        0.00000  -0.00000   0.00000  -0.00000  -0.00000   0.00000
   D17       -0.00000   0.00000   0.00000   0.00000   0.00000  -0.00000
   D18        3.14159  -0.00000   0.00000  -0.00000  -0.00000   3.14159
   D19        3.14159   0.00000   0.00000   0.00000   0.00000   3.14159
   D20        0.00000  -0.00000   0.00000  -0.00000  -0.00000  -0.00000
   D21        0.00000  -0.00000   0.00000  -0.00000  -0.00000   0.00000
   D22       -3.14159  -0.00000   0.00000  -0.00000  -0.00000  -3.14159
   D23       -3.14159   0.00000   0.00000   0.00000   0.00000  -3.14159
   D24        0.00000   0.00000   0.00000   0.00000   0.00000   0.00000
   D25       -0.00000   0.00000   0.00000   0.00000   0.00000  -0.00000
   D26        3.14159   0.00000   0.00000   0.00000   0.00000  -3.14159
   D27        3.14159   0.00000   0.00000   0.00000   0.00000   3.14159
   D28       -0.00000   0.00000   0.00000   0.00000   0.00000  -0.00000
   D29        3.14159   0.00000   0.00000   0.00000   0.00000  -3.14159
   D30        0.00000  -0.00000   0.00000  -0.00000  -0.00000   0.00000
   D31        0.00000  -0.00000   0.00000  -0.00000  -0.00000   0.00000
   D32       -3.14159  -0.00000   0.00000  -0.00000  -0.00000  -3.14159
   D33       -3.14159  -0.00000   0.00000  -0.00000  -0.00000   3.14159
   D34        0.00000  -0.00000   0.00000  -0.00000  -0.00000  -0.00000
   D35       -0.00000   0.00000   0.00000   0.00000   0.00000   0.00000
   D36        3.14159   0.00000   0.00000   0.00000   0.00000   3.14159
   D37       -0.00000  -0.00000   0.00000  -0.00000  -0.00000  -0.00000
   D38        3.14159  -0.00000   0.00000  -0.00000  -0.00000   3.14159
   D39        3.14159   0.00000   0.00000   0.00000   0.00000   3.14159
   D40       -0.00000   0.00000   0.00000   0.00000   0.00000  -0.00000
   D41       -0.00000   0.00000   0.00000   0.00000   0.00000   0.00000
   D42       -3.14159  -0.00000   0.00000  -0.00000  -0.00000   3.14159
   D43        3.14159   0.00000   0.00000   0.00000   0.00000  -3.14159
   D44        0.00000  -0.00000   0.00000  -0.00000  -0.00000   0.00000
   D45        0.00000   0.00000   0.00000   0.00000   0.00000   0.00000
   D46       -3.14159  -0.00000   0.00000  -0.00000  -0.00000  -3.14159
   D47        3.14159   0.00000   0.00000   0.00000   0.00000  -3.14159
   D48        0.00000  -0.00000   0.00000  -0.00000  -0.00000   0.00000
   D49        0.00000  -0.00000   0.00000  -0.00000  -0.00000  -0.00000
   D50       -3.14159  -0.00000   0.00000  -0.00000  -0.00000  -3.14159
   D51        3.14159   0.00000   0.00000   0.00000   0.00000   3.14159
   D52       -0.00000   0.00000   0.00000   0.00000   0.00000   0.00000
         Item               Value     Threshold  Converged?
 Maximum Force            0.017240     0.000450     NO 
 RMS     Force            0.004773     0.000300     NO 
 Maximum Displacement     0.111672     0.001800     NO 
 RMS     Displacement     0.029064     0.001200     NO 
 Predicted change in Energy=-4.514448D-03
 GradGradGradGradGradGradGradGradGradGradGradGradGradGradGradGradGradGrad

                          Input orientation:                          
 ---------------------------------------------------------------------
 Center     Atomic      Atomic             Coordinates (Angstroms)
 Number     Number       Type             X           Y           Z
 ---------------------------------------------------------------------
      1          6           0       -0.932471    0.535854    0.909910
      2          6           0        0.397842    0.587756    0.481381
      3          6           0        1.099570    1.785589    0.475156
      4          6           0        0.494728    2.974255    0.897664
      5          6           0       -0.835989    2.922748    1.326400
      6          6           0       -1.536772    1.724360    1.332210
      7          6           0       -1.694697   -0.766427    0.916450
      8          6           0       -1.090398   -1.954932    0.494145
      9          6           0       -1.791181   -3.153320    0.499954
     10          6           0       -3.121896   -3.204828    0.928695
     11          6           0       -3.726736   -2.016163    1.351209
     12          6           0       -3.025008   -0.818329    1.344984
     13          1           0        0.912536   -0.297919    0.145476
     14          1           0       -2.559548    1.741965    1.672473
     15          1           0       -0.067623   -1.972536    0.153878
     16          1           0       -3.539701    0.067344    1.680893
     17         17           0        1.376171    4.480219    0.890102
     18         17           0       -4.003339   -4.710792    0.936257
     19         17           0       -1.661186    4.362514    1.868663
     20         17           0       -5.383761   -1.997598    1.900616
     21         17           0        2.756597    1.767023   -0.074245
     22         17           0       -0.965987   -4.593084   -0.042318
 ---------------------------------------------------------------------
                    Distance matrix (angstroms):
                    1          2          3          4          5
     1  C    0.000000
     2  C    1.398593   0.000000
     3  C    2.424878   1.388260   0.000000
     4  C    2.825393   2.424471   1.399026   0.000000
     5  C    2.424878   2.772830   2.400861   1.399026   0.000000
     6  C    1.398593   2.399689   2.772830   2.424471   1.388260
     7  C    1.508963   2.530181   3.809915   4.334356   3.809915
     8  C    2.530181   2.946231   4.334491   5.193490   4.954708
     9  C    3.809915   4.334491   5.722751   6.552155   6.205965
    10  C    4.334356   5.193490   6.552155   7.159749   6.552155
    11  C    3.809915   4.954708   6.205965   6.552155   5.722751
    12  C    2.530181   3.799840   4.954708   5.193490   4.334491
    13  H    2.164160   1.078036   2.117705   3.383411   3.850275
    14  H    2.164160   3.390731   3.850275   3.383411   2.117705
    15  H    2.758907   2.622786   3.948298   5.033905   5.092053
    16  H    2.758907   4.148964   5.092053   5.033905   3.948298
    17  Cl   4.570364   4.034284   2.740387   1.744971   2.740387
    18  Cl   6.079327   6.903036   8.273769   8.904720   8.273769
    19  Cl   4.011677   4.518069   4.025441   2.741909   1.745831
    20  Cl   5.216691   6.490394   7.640551   7.764140   6.724713
    21  Cl   4.011677   2.695017   1.745831   2.741909   4.025441
    22  Cl   5.216691   5.382879   6.724713   7.764140   7.640551
                    6          7          8          9         10
     6  C    0.000000
     7  C    2.530181   0.000000
     8  C    3.799840   1.398593   0.000000
     9  C    4.954708   2.424878   1.388260   0.000000
    10  C    5.193490   2.825393   2.424471   1.399026   0.000000
    11  C    4.334491   2.424878   2.772830   2.400861   1.399026
    12  C    2.946231   1.398593   2.399689   2.772830   2.424471
    13  H    3.390731   2.758907   2.622786   3.948298   5.033905
    14  H    1.078036   2.758907   4.148964   5.092053   5.033905
    15  H    4.148964   2.164160   1.078036   2.117705   3.383411
    16  H    2.622786   2.164160   3.390731   3.850275   3.383411
    17  Cl   4.034284   6.079327   6.903036   8.273769   8.904720
    18  Cl   6.903036   4.570364   4.034284   2.740387   1.744971
    19  Cl   2.695017   5.216691   6.490394   7.640551   7.764140
    20  Cl   5.382879   4.011677   4.518069   4.025441   2.741909
    21  Cl   4.518069   5.216691   5.382879   6.724713   7.764140
    22  Cl   6.490394   4.011677   2.695017   1.745831   2.741909
                   11         12         13         14         15
    11  C    0.000000
    12  C    1.388260   0.000000
    13  H    5.092053   4.148964   0.000000
    14  H    3.948298   2.622786   4.306764   0.000000
    15  H    3.850275   3.390731   1.940393   4.723700   0.000000
    16  H    2.117705   1.078036   4.723700   1.940393   4.306764
    17  Cl   8.273769   6.903036   4.857986   4.857986   6.653166
    18  Cl   2.740387   4.034284   6.653166   6.653166   4.857986
    19  Cl   6.724713   5.382879   5.595807   2.777197   6.753724
    20  Cl   1.745831   2.695017   6.753724   4.691754   5.595807
    21  Cl   7.640551   6.490394   2.777197   5.595807   4.691754
    22  Cl   4.025441   4.518069   4.691754   6.753724   2.777197
                   16         17         18         19         20
    16  H    0.000000
    17  Cl   6.653166   0.000000
    18  Cl   4.857986  10.649691   0.000000
    19  Cl   4.691754   3.193270   9.417002   0.000000
    20  Cl   2.777197   9.417002   3.193270   7.369505   0.000000
    21  Cl   6.753724   3.193270   9.417002   5.479805   9.183565
    22  Cl   5.595807   9.417002   3.193270   9.183565   5.479805
                   21         22
    21  Cl   0.000000
    22  Cl   7.369505   0.000000
 Stoichiometry    C12H4Cl6
 Framework group  C1[X(C12H4Cl6)]
 Deg. of freedom    60
 Full point group                 C1      NOp   1
 Largest Abelian subgroup         C1      NOp   1
 Largest concise Abelian subgroup C1      NOp   1
                         Standard orientation:                         
 ---------------------------------------------------------------------
 Center     Atomic      Atomic             Coordinates (Angstroms)
 Number     Number       Type             X           Y           Z
 ---------------------------------------------------------------------
      1          6           0        0.754481    0.000000   -0.000000
      2          6           0        1.473116    1.199845   -0.000003
      3          6           0        2.861375    1.200430   -0.000003
      4          6           0        3.579874    0.000000   -0.000000
      5          6           0        2.861375   -1.200430    0.000003
      6          6           0        1.473116   -1.199845    0.000003
      7          6           0       -0.754481    0.000000   -0.000000
      8          6           0       -1.473116    1.199845    0.000002
      9          6           0       -2.861375    1.200430    0.000003
     10          6           0       -3.579874    0.000000   -0.000000
     11          6           0       -2.861375   -1.200430   -0.000003
     12          6           0       -1.473116   -1.199845   -0.000003
     13          1           0        0.970197    2.153382   -0.000005
     14          1           0        0.970197   -2.153382    0.000005
     15          1           0       -0.970197    2.153382    0.000004
     16          1           0       -0.970197   -2.153382   -0.000005
     17         17           0        5.324846    0.000000   -0.000001
     18         17           0       -5.324846    0.000000    0.000000
     19         17           0        3.684753   -2.739903    0.000008
     20         17           0       -3.684753   -2.739903   -0.000007
     21         17           0        3.684753    2.739903   -0.000006
     22         17           0       -3.684753    2.739903    0.000007
 ---------------------------------------------------------------------
 Rotational constants (GHZ):           0.4187001           0.1074281           0.0854928
 Standard basis: 6-311+G(d,p) (5D, 7F)
 There are   486 symmetry adapted cartesian basis functions of A   symmetry.
 There are   468 symmetry adapted basis functions of A   symmetry.
   468 basis functions,   782 primitive gaussians,   486 cartesian basis functions
    89 alpha electrons       89 beta electrons
       nuclear repulsion energy      1917.2764385942 Hartrees.
 NAtoms=   22 NActive=   22 NUniq=   22 SFac= 1.00D+00 NAtFMM=   60 NAOKFM=F Big=F
 Integral buffers will be    131072 words long.
 Raffenetti 2 integral format.
 Two-electron integral symmetry is turned on.
 One-electron integrals computed using PRISM.
 NBasis=   468 RedAO= T EigKep=  1.67D-06  NBF=   468
 NBsUse=   461 1.00D-06 EigRej=  7.29D-07 NBFU=   461
 Initial guess from the checkpoint file:  "./Gau-434776.chk"
 B after Tr=     0.000000   -0.000000   -0.000000
         Rot=    1.000000    0.000000    0.000000   -0.000000 Ang=   0.00 deg.
 ExpMin= 4.38D-02 ExpMax= 1.06D+05 ExpMxC= 3.62D+03 IAcc=3 IRadAn=         5 AccDes= 0.00D+00
 Harris functional with IExCor=  402 and IRadAn=       5 diagonalized for initial guess.
 HarFok:  IExCor=  402 AccDes= 0.00D+00 IRadAn=         5 IDoV= 1 UseB2=F ITyADJ=14
 ICtDFT=  3500011 ScaDFX=  1.000000  1.000000  1.000000  1.000000
 FoFCou: FMM=F IPFlag=           0 FMFlag=      100000 FMFlg1=           0
         NFxFlg=           0 DoJE=T BraDBF=F KetDBF=T FulRan=T
         wScrn=  0.000000 ICntrl=       500 IOpCl=  0 I1Cent=   200000004 NGrid=           0
         NMat0=    1 NMatS0=      1 NMatT0=    0 NMatD0=    1 NMtDS0=    0 NMtDT0=    0
 Petite list used in FoFCou.
 Requested convergence on RMS density matrix=1.00D-08 within  32 cycles.
 Requested convergence on MAX density matrix=1.00D-06.
 Requested convergence on             energy=1.00D-06.
 No special actions if energy rises.
 SCF Done:  E(RB3LYP) =  -3221.13112792     A.U. after   13 cycles
            NFock= 13  Conv=0.37D-08     -V/T= 2.0026
 QCSCF skips out because SCF is already converged.
 Calling FoFJK, ICntrl=      2127 FMM=F ISym2X=0 I1Cent= 0 IOpClX= 0 NMat=1 NMatS=1 NMatT=0.
 ***** Axes restored to original set *****
 -------------------------------------------------------------------
 Center     Atomic                   Forces (Hartrees/Bohr)
 Number     Number              X              Y              Z
 -------------------------------------------------------------------
      1        6          -0.005887315   -0.010058599    0.000050508
      2        6          -0.001188691    0.001503406    0.000674006
      3        6           0.000014011   -0.000994040   -0.000191301
      4        6           0.003951102    0.006750555   -0.000033917
      5        6          -0.000872719   -0.000473080    0.000198675
      6        6           0.001889948   -0.000305325   -0.000679990
      7        6           0.005887306    0.010058606   -0.000050519
      8        6          -0.001889933    0.000305315    0.000680026
      9        6           0.000872713    0.000473082   -0.000198685
     10        6          -0.003951109   -0.006750551    0.000033890
     11        6          -0.000014010    0.000994042    0.000191303
     12        6           0.001188702   -0.001503414   -0.000673979
     13        1           0.001174419   -0.000169874   -0.000418818
     14        1          -0.000721374    0.000943922    0.000414916
     15        1           0.000721352   -0.000943909   -0.000414984
     16        1          -0.001174410    0.000169871    0.000418841
     17       17          -0.002123841   -0.003628624    0.000018214
     18       17           0.002123840    0.003628624   -0.000018219
     19       17           0.000239898   -0.000057770   -0.000089872
     20       17           0.000167444   -0.000181548   -0.000089265
     21       17          -0.000167443    0.000181547    0.000089269
     22       17          -0.000239888    0.000057764    0.000089902
 -------------------------------------------------------------------
 Cartesian Forces:  Max     0.010058606 RMS     0.002630293

 GradGradGradGradGradGradGradGradGradGradGradGradGradGradGradGradGradGrad
 Berny optimization.
 Using GEDIIS/GDIIS optimizer.
 FormGI is forming the generalized inverse of G from B-inverse, IUseBI=4.
 Internal  Forces:  Max     0.007308986 RMS     0.001194177
 Search for a local minimum.
 Step number   2 out of a maximum of  121
 All quantities printed in internal units (Hartrees-Bohrs-Radians)
 Mixed Optimization -- RFO/linear search
 Update second derivatives using D2CorX and points    1    2
 DE= -5.14D-03 DEPred=-4.51D-03 R= 1.14D+00
 TightC=F SS=  1.41D+00  RLast= 1.81D-01 DXNew= 5.0454D-01 5.4307D-01
 Trust test= 1.14D+00 RLast= 1.81D-01 DXMaxT set to 5.05D-01
 ITU=  1  0
 Use linear search instead of GDIIS.
     Eigenvalues ---    0.00237   0.01487   0.01487   0.02070   0.02070
     Eigenvalues ---    0.02070   0.02070   0.02070   0.02070   0.02070
     Eigenvalues ---    0.02070   0.02070   0.02070   0.02070   0.02070
     Eigenvalues ---    0.02070   0.02070   0.02070   0.02070   0.15097
     Eigenvalues ---    0.16000   0.16000   0.16000   0.20489   0.23476
     Eigenvalues ---    0.23476   0.23481   0.24187   0.25000   0.25000
     Eigenvalues ---    0.25000   0.25000   0.25000   0.25000   0.25000
     Eigenvalues ---    0.25000   0.25758   0.27283   0.29213   0.29539
     Eigenvalues ---    0.29539   0.29539   0.29539   0.30483   0.37168
     Eigenvalues ---    0.37230   0.37230   0.37230   0.41424   0.41424
     Eigenvalues ---    0.41788   0.41792   0.45331   0.45389   0.45389
     Eigenvalues ---    0.45389   0.45389   0.45389   0.45389   0.49101
 RFO step:  Lambda=-4.75560235D-04 EMin= 2.36824176D-03
 Quartic linear search produced a step of  0.18659.
 Iteration  1 RMS(Cart)=  0.00545972 RMS(Int)=  0.00002916
 Iteration  2 RMS(Cart)=  0.00003847 RMS(Int)=  0.00000200
 Iteration  3 RMS(Cart)=  0.00000000 RMS(Int)=  0.00000200
 Variable       Old X    -DE/DX   Delta X   Delta X   Delta X     New X
                                 (Linear)    (Quad)   (Total)
    R1        2.64296   0.00108  -0.00099   0.00357   0.00258   2.64554
    R2        2.64296   0.00108  -0.00099   0.00357   0.00258   2.64554
    R3        2.85153  -0.00731  -0.01094  -0.02184  -0.03278   2.81874
    R4        2.62343   0.00103  -0.00463   0.00618   0.00154   2.62498
    R5        2.03719   0.00083   0.00283   0.00048   0.00332   2.04051
    R6        2.64378   0.00059  -0.00084   0.00217   0.00133   2.64510
    R7        3.29914  -0.00019  -0.00500   0.00312  -0.00188   3.29726
    R8        2.64378   0.00059  -0.00084   0.00217   0.00133   2.64510
    R9        3.29752  -0.00420  -0.00530  -0.01275  -0.01805   3.27947
   R10        2.62343   0.00103  -0.00463   0.00618   0.00154   2.62498
   R11        3.29914  -0.00019  -0.00500   0.00312  -0.00188   3.29726
   R12        2.03719   0.00083   0.00283   0.00048   0.00332   2.04051
   R13        2.64296   0.00108  -0.00099   0.00357   0.00258   2.64554
   R14        2.64296   0.00108  -0.00099   0.00357   0.00258   2.64554
   R15        2.62343   0.00103  -0.00463   0.00618   0.00154   2.62498
   R16        2.03719   0.00083   0.00283   0.00048   0.00332   2.04051
   R17        2.64378   0.00059  -0.00084   0.00217   0.00133   2.64510
   R18        3.29914  -0.00019  -0.00500   0.00312  -0.00188   3.29726
   R19        2.64378   0.00059  -0.00084   0.00217   0.00133   2.64510
   R20        3.29752  -0.00420  -0.00530  -0.01275  -0.01805   3.27947
   R21        2.62343   0.00103  -0.00463   0.00618   0.00154   2.62498
   R22        3.29914  -0.00019  -0.00500   0.00312  -0.00188   3.29726
   R23        2.03719   0.00083   0.00283   0.00048   0.00332   2.04051
    A1        2.06231  -0.00263  -0.00599  -0.00803  -0.01401   2.04831
    A2        2.11044   0.00131   0.00299   0.00401   0.00700   2.11744
    A3        2.11044   0.00131   0.00299   0.00401   0.00700   2.11744
    A4        2.11086   0.00133   0.00307   0.00439   0.00747   2.11832
    A5        2.11661   0.00030   0.00414   0.00019   0.00434   2.12094
    A6        2.05572  -0.00163  -0.00722  -0.00458  -0.01180   2.04392
    A7        2.10972   0.00096   0.00286   0.00202   0.00488   2.11459
    A8        2.06235  -0.00018  -0.00598   0.00400  -0.00198   2.06037
    A9        2.11112  -0.00078   0.00312  -0.00602  -0.00290   2.10822
   A10        2.06291  -0.00194  -0.00587  -0.00480  -0.01068   2.05223
   A11        2.11014   0.00097   0.00294   0.00240   0.00534   2.11548
   A12        2.11014   0.00097   0.00294   0.00240   0.00534   2.11548
   A13        2.10972   0.00096   0.00286   0.00202   0.00488   2.11459
   A14        2.11112  -0.00078   0.00312  -0.00602  -0.00290   2.10822
   A15        2.06235  -0.00018  -0.00598   0.00400  -0.00198   2.06037
   A16        2.11086   0.00133   0.00307   0.00439   0.00747   2.11832
   A17        2.11661   0.00030   0.00414   0.00019   0.00434   2.12094
   A18        2.05572  -0.00163  -0.00722  -0.00458  -0.01180   2.04392
   A19        2.11044   0.00131   0.00299   0.00401   0.00700   2.11744
   A20        2.11044   0.00131   0.00299   0.00401   0.00700   2.11744
   A21        2.06231  -0.00263  -0.00599  -0.00803  -0.01401   2.04831
   A22        2.11086   0.00133   0.00307   0.00439   0.00747   2.11832
   A23        2.11661   0.00030   0.00414   0.00019   0.00434   2.12094
   A24        2.05572  -0.00163  -0.00722  -0.00458  -0.01180   2.04392
   A25        2.10972   0.00096   0.00286   0.00202   0.00488   2.11459
   A26        2.06235  -0.00018  -0.00598   0.00400  -0.00198   2.06037
   A27        2.11112  -0.00078   0.00312  -0.00602  -0.00290   2.10822
   A28        2.06291  -0.00194  -0.00587  -0.00480  -0.01068   2.05223
   A29        2.11014   0.00097   0.00294   0.00240   0.00534   2.11548
   A30        2.11014   0.00097   0.00294   0.00240   0.00534   2.11548
   A31        2.10972   0.00096   0.00286   0.00202   0.00488   2.11459
   A32        2.11112  -0.00078   0.00312  -0.00602  -0.00290   2.10822
   A33        2.06235  -0.00018  -0.00598   0.00400  -0.00198   2.06037
   A34        2.11086   0.00133   0.00307   0.00439   0.00747   2.11832
   A35        2.11661   0.00030   0.00414   0.00019   0.00434   2.12094
   A36        2.05572  -0.00163  -0.00722  -0.00458  -0.01180   2.04392
    D1        0.00000  -0.00000  -0.00000  -0.00000  -0.00000   0.00000
    D2        3.14159  -0.00000   0.00000  -0.00000  -0.00000   3.14159
    D3       -3.14159  -0.00000  -0.00000   0.00000  -0.00000  -3.14159
    D4       -0.00000  -0.00000   0.00000  -0.00000  -0.00000  -0.00000
    D5       -0.00000   0.00000   0.00000   0.00000   0.00000   0.00000
    D6        3.14159  -0.00000  -0.00000  -0.00000  -0.00000   3.14159
    D7        3.14159   0.00000   0.00000  -0.00000   0.00000   3.14159
    D8       -0.00000  -0.00000  -0.00000  -0.00000  -0.00000  -0.00000
    D9       -0.00000  -0.00000  -0.00000  -0.00001  -0.00001  -0.00002
   D10        3.14159  -0.00000  -0.00000  -0.00001  -0.00001   3.14158
   D11        3.14159  -0.00000  -0.00000  -0.00001  -0.00001   3.14158
   D12       -0.00000  -0.00000  -0.00000  -0.00001  -0.00001  -0.00002
   D13       -0.00000   0.00000  -0.00000   0.00000   0.00000   0.00000
   D14        3.14159  -0.00000   0.00000  -0.00000  -0.00000   3.14159
   D15       -3.14159  -0.00000  -0.00000   0.00000   0.00000  -3.14159
   D16        0.00000  -0.00000  -0.00000   0.00000  -0.00000   0.00000
   D17       -0.00000   0.00000   0.00000   0.00000   0.00000  -0.00000
   D18        3.14159   0.00000  -0.00000   0.00000   0.00000   3.14159
   D19        3.14159   0.00000   0.00000   0.00000   0.00000  -3.14159
   D20       -0.00000   0.00000  -0.00000   0.00000   0.00000   0.00000
   D21        0.00000  -0.00000  -0.00000  -0.00000  -0.00000   0.00000
   D22       -3.14159  -0.00000  -0.00000  -0.00000  -0.00000  -3.14159
   D23       -3.14159  -0.00000   0.00000  -0.00000  -0.00000  -3.14159
   D24        0.00000  -0.00000   0.00000  -0.00000  -0.00000   0.00000
   D25       -0.00000   0.00000   0.00000   0.00000   0.00000  -0.00000
   D26       -3.14159   0.00000   0.00000   0.00000   0.00000  -3.14159
   D27        3.14159   0.00000   0.00000   0.00000   0.00000   3.14159
   D28       -0.00000   0.00000   0.00000   0.00000   0.00000   0.00000
   D29       -3.14159  -0.00000   0.00000  -0.00000  -0.00000   3.14159
   D30        0.00000  -0.00000  -0.00000  -0.00000  -0.00000  -0.00000
   D31        0.00000  -0.00000  -0.00000  -0.00000  -0.00000   0.00000
   D32       -3.14159  -0.00000  -0.00000  -0.00000  -0.00000   3.14159
   D33        3.14159   0.00000  -0.00000   0.00000   0.00000  -3.14159
   D34       -0.00000  -0.00000  -0.00000   0.00000  -0.00000  -0.00000
   D35        0.00000  -0.00000   0.00000  -0.00000  -0.00000  -0.00000
   D36        3.14159  -0.00000   0.00000  -0.00000  -0.00000   3.14159
   D37       -0.00000   0.00000  -0.00000   0.00000   0.00000  -0.00000
   D38        3.14159   0.00000  -0.00000   0.00000   0.00000   3.14159
   D39        3.14159   0.00000   0.00000   0.00000   0.00000  -3.14159
   D40       -0.00000   0.00000   0.00000   0.00000   0.00000   0.00000
   D41        0.00000  -0.00000   0.00000  -0.00000  -0.00000  -0.00000
   D42       -3.14159   0.00000  -0.00000   0.00000   0.00000  -3.14159
   D43       -3.14159  -0.00000   0.00000  -0.00000  -0.00000   3.14159
   D44        0.00000  -0.00000  -0.00000   0.00000  -0.00000   0.00000
   D45        0.00000  -0.00000   0.00000  -0.00000  -0.00000   0.00000
   D46       -3.14159   0.00000  -0.00000   0.00000   0.00000  -3.14159
   D47       -3.14159  -0.00000   0.00000  -0.00000  -0.00000   3.14159
   D48        0.00000  -0.00000  -0.00000   0.00000  -0.00000   0.00000
   D49       -0.00000   0.00000  -0.00000   0.00000   0.00000   0.00000
   D50        3.14159   0.00000  -0.00000   0.00000   0.00000  -3.14159
   D51        3.14159  -0.00000   0.00000  -0.00000  -0.00000   3.14159
   D52        0.00000   0.00000   0.00000  -0.00000   0.00000   0.00000
         Item               Value     Threshold  Converged?
 Maximum Force            0.007309     0.000450     NO 
 RMS     Force            0.001194     0.000300     NO 
 Maximum Displacement     0.020037     0.001800     NO 
 RMS     Displacement     0.005467     0.001200     NO 
 Predicted change in Energy=-3.836465D-04
 GradGradGradGradGradGradGradGradGradGradGradGradGradGradGradGradGradGrad

                          Input orientation:                          
 ---------------------------------------------------------------------
 Center     Atomic      Atomic             Coordinates (Angstroms)
 Number     Number       Type             X           Y           Z
 ---------------------------------------------------------------------
      1          6           0       -0.936852    0.528368    0.909947
      2          6           0        0.394917    0.589964    0.482766
      3          6           0        1.097575    1.788198    0.476310
[...]
                 (A) (A) (A) (A) (A) (A) (A) (A) (A) (A) (A) (A)
                 (A) (A) (A) (A) (A) (A) (A) (A) (A) (A) (A) (A)
                 (A) (A) (A) (A) (A) (A) (A) (A) (A) (A) (A) (A)
                 (A) (A) (A) (A) (A) (A) (A) (A) (A) (A) (A) (A)
                 (A) (A) (A) (A) (A) (A) (A) (A) (A) (A) (A) (A)
                 (A) (A) (A) (A) (A) (A) (A) (A) (A) (A) (A) (A)
                 (A) (A) (A) (A) (A) (A) (A) (A) (A) (A) (A) (A)
                 (A) (A) (A) (A) (A) (A) (A) (A) (A) (A) (A) (A)
                 (A) (A) (A) (A) (A) (A) (A) (A) (A) (A) (A) (A)
                 (A) (A) (A) (A) (A) (A) (A) (A) (A) (A) (A) (A)
                 (A) (A) (A) (A) (A) (A) (A) (A) (A) (A) (A) (A)
                 (A) (A) (A) (A) (A) (A) (A) (A) (A) (A) (A) (A)
                 (A) (A) (A) (A) (A) (A) (A) (A) (A) (A) (A) (A)
                 (A) (A) (A) (A) (A) (A) (A) (A) (A) (A) (A) (A)
                 (A) (A) (A) (A) (A) (A) (A) (A) (A) (A) (A) (A)
                 (A) (A) (A) (A) (A) (A) (A) (A) (A) (A) (A) (A)
                 (A) (A) (A) (A) (A) (A) (A) (A) (A) (A) (A) (A)
                 (A) (A) (A) (A) (A) (A) (A) (A) (A) (A) (A) (A)
                 (A) (A) (A) (A) (A) (A) (A) (A) (A) (A) (A) (A)
                 (A) (A) (A) (A) (A) (A) (A) (A) (A) (A) (A) (A)
                 (A) (A) (A) (A) (A) (A) (A) (A) (A) (A) (A) (A)
                 (A) (A) (A) (A) (A) (A) (A) (A) (A) (A) (A) (A)
                 (A) (A) (A) (A) (A) (A) (A) (A) (A) (A) (A) (A)
                 (A) (A) (A) (A) (A) (A) (A) (A) (A) (A) (A) (A)
                 (A) (A) (A) (A) (A) (A) (A) (A) (A) (A) (A) (A)
                 (A) (A) (A) (A) (A) (A) (A) (A) (A) (A) (A) (A)
 The electronic state is 1-A.
 Alpha  occ. eigenvalues -- -101.58081-101.58081-101.57925-101.57925-101.57925
 Alpha  occ. eigenvalues -- -101.57925 -10.27899 -10.27899 -10.27735 -10.27735
 Alpha  occ. eigenvalues --  -10.27727 -10.27726 -10.23720 -10.23692 -10.22102
 Alpha  occ. eigenvalues --  -10.22102 -10.22101 -10.22100  -9.49540  -9.49539
 Alpha  occ. eigenvalues --   -9.49387  -9.49387  -9.49387  -9.49386  -7.26040
 Alpha  occ. eigenvalues --   -7.26040  -7.25874  -7.25874  -7.25874  -7.25874
 Alpha  occ. eigenvalues --   -7.25023  -7.25023  -7.24938  -7.24938  -7.24865
 Alpha  occ. eigenvalues --   -7.24865  -7.24865  -7.24865  -7.24806  -7.24806
 Alpha  occ. eigenvalues --   -7.24806  -7.24806  -0.95709  -0.95321  -0.90427
 Alpha  occ. eigenvalues --   -0.90380  -0.89366  -0.87851  -0.86765  -0.84740
 Alpha  occ. eigenvalues --   -0.79038  -0.77529  -0.76113  -0.74837  -0.66857
 Alpha  occ. eigenvalues --   -0.65620  -0.63228  -0.61622  -0.56547  -0.55084
 Alpha  occ. eigenvalues --   -0.52631  -0.50990  -0.50831  -0.48208  -0.47619
 Alpha  occ. eigenvalues --   -0.47549  -0.46204  -0.46145  -0.45288  -0.43475
 Alpha  occ. eigenvalues --   -0.42866  -0.41598  -0.39856  -0.39164  -0.39095
 Alpha  occ. eigenvalues --   -0.39032  -0.36410  -0.35611  -0.35573  -0.35419
 Alpha  occ. eigenvalues --   -0.34755  -0.34368  -0.33721  -0.32425  -0.32277
 Alpha  occ. eigenvalues --   -0.29411  -0.28173  -0.27581  -0.25754
 Alpha virt. eigenvalues --   -0.08973  -0.06951  -0.04581  -0.04106  -0.03973
 Alpha virt. eigenvalues --   -0.02055  -0.01096   0.00382   0.00788   0.00878
 Alpha virt. eigenvalues --    0.01297   0.01938   0.02277   0.02823   0.02844
 Alpha virt. eigenvalues --    0.04131   0.04283   0.05547   0.05623   0.06462
 Alpha virt. eigenvalues --    0.06500   0.06586   0.06736   0.07884   0.08373
 Alpha virt. eigenvalues --    0.08545   0.08550   0.08619   0.09060   0.09069
 Alpha virt. eigenvalues --    0.09541   0.10278   0.10902   0.10931   0.11048
 Alpha virt. eigenvalues --    0.11239   0.11670   0.12607   0.12803   0.13382
 Alpha virt. eigenvalues --    0.13457   0.13738   0.13891   0.14267   0.14898
 Alpha virt. eigenvalues --    0.15636   0.15998   0.16109   0.17054   0.17317
 Alpha virt. eigenvalues --    0.17369   0.17516   0.17568   0.17681   0.17718
 Alpha virt. eigenvalues --    0.17755   0.18396   0.19366   0.19399   0.19693
 Alpha virt. eigenvalues --    0.20362   0.21918   0.22328   0.22348   0.22420
 Alpha virt. eigenvalues --    0.22443   0.22540   0.22694   0.24485   0.24689
 Alpha virt. eigenvalues --    0.24968   0.25241   0.26066   0.26462   0.26956
 Alpha virt. eigenvalues --    0.27577   0.27623   0.28097   0.28173   0.30376
 Alpha virt. eigenvalues --    0.32070   0.32115   0.32128   0.32268   0.32324
 Alpha virt. eigenvalues --    0.32704   0.35067   0.35520   0.35588   0.38963
 Alpha virt. eigenvalues --    0.40035   0.42376   0.42586   0.42895   0.43186
 Alpha virt. eigenvalues --    0.43306   0.44894   0.44952   0.45227   0.45233
 Alpha virt. eigenvalues --    0.45310   0.45539   0.46370   0.46413   0.46841
 Alpha virt. eigenvalues --    0.47218   0.47483   0.47800   0.48073   0.49231
 Alpha virt. eigenvalues --    0.50134   0.51248   0.51650   0.52130   0.52444
 Alpha virt. eigenvalues --    0.53818   0.55860   0.57171   0.57261   0.57403
 Alpha virt. eigenvalues --    0.58790   0.58958   0.60374   0.60747   0.60919
 Alpha virt. eigenvalues --    0.61175   0.62706   0.63142   0.63560   0.63594
 Alpha virt. eigenvalues --    0.63752   0.64887   0.65210   0.65819   0.68675
 Alpha virt. eigenvalues --    0.68798   0.69807   0.70508   0.70942   0.73550
 Alpha virt. eigenvalues --    0.74696   0.76115   0.80639   0.81814   0.82333
 Alpha virt. eigenvalues --    0.82726   0.83472   0.83486   0.83612   0.83729
 Alpha virt. eigenvalues --    0.84025   0.84290   0.84420   0.84561   0.84736
 Alpha virt. eigenvalues --    0.85011   0.85448   0.85932   0.86207   0.86924
 Alpha virt. eigenvalues --    0.87276   0.87628   0.87947   0.88352   0.90056
 Alpha virt. eigenvalues --    0.90658   0.90909   0.91712   0.92092   0.92444
 Alpha virt. eigenvalues --    0.92677   0.93190   0.93617   0.94164   0.94202
 Alpha virt. eigenvalues --    0.94544   0.94600   0.95411   0.97228   0.97335
 Alpha virt. eigenvalues --    0.97949   0.98394   1.00008   1.03230   1.03716
 Alpha virt. eigenvalues --    1.05812   1.06196   1.07047   1.08829   1.10019
 Alpha virt. eigenvalues --    1.10546   1.12529   1.14385   1.20283   1.21774
 Alpha virt. eigenvalues --    1.22251   1.22722   1.22896   1.23566   1.25295
 Alpha virt. eigenvalues --    1.26127   1.26301   1.27369   1.27611   1.28268
 Alpha virt. eigenvalues --    1.28768   1.29718   1.31344   1.34008   1.37834
 Alpha virt. eigenvalues --    1.37913   1.40245   1.42597   1.45164   1.47379
 Alpha virt. eigenvalues --    1.51870   1.53650   1.53775   1.55751   1.58058
 Alpha virt. eigenvalues --    1.59150   1.59509   1.62421   1.63776   1.64209
 Alpha virt. eigenvalues --    1.67235   1.67993   1.71604   1.76811   1.77451
 Alpha virt. eigenvalues --    1.78447   1.78876   1.80815   1.83391   1.83758
 Alpha virt. eigenvalues --    1.84784   1.87407   1.87878   1.88946   1.90361
 Alpha virt. eigenvalues --    1.92383   1.94691   1.95109   1.96026   1.96322
 Alpha virt. eigenvalues --    1.96825   2.01309   2.02576   2.02765   2.11396
 Alpha virt. eigenvalues --    2.12284   2.18344   2.20948   2.21637   2.22056
 Alpha virt. eigenvalues --    2.23636   2.24856   2.24893   2.25139   2.26495
 Alpha virt. eigenvalues --    2.28151   2.28634   2.29573   2.29819   2.31024
 Alpha virt. eigenvalues --    2.32443   2.33200   2.34936   2.36526   2.41731
 Alpha virt. eigenvalues --    2.41891   2.42288   2.44035   2.45243   2.45609
 Alpha virt. eigenvalues --    2.50476   2.50515   2.50619   2.54936   2.55030
 Alpha virt. eigenvalues --    2.56573   2.57809   2.59278   2.60986   2.62957
 Alpha virt. eigenvalues --    2.66549   2.67888   2.71819   2.71995   2.72023
 Alpha virt. eigenvalues --    2.72844   2.73178   2.73499   2.76574   2.80824
 Alpha virt. eigenvalues --    2.80845   2.81474   2.84391   2.89890   2.92749
 Alpha virt. eigenvalues --    2.93988   3.03162   3.04351   3.04568   3.05803
 Alpha virt. eigenvalues --    3.12169   3.13175   3.14827   3.16187   3.19951
 Alpha virt. eigenvalues --    3.20376   3.20586   3.22802   3.32199   3.39596
 Alpha virt. eigenvalues --    3.39611   3.43054   3.60403   3.60502   3.69746
 Alpha virt. eigenvalues --    3.71952   3.72317   3.76458   3.97002   4.02342
 Alpha virt. eigenvalues --    4.05478   4.16626   4.50202   4.77653   4.84436
 Alpha virt. eigenvalues --    9.71670   9.75049   9.78130   9.78784   9.80099
 Alpha virt. eigenvalues --    9.80255  23.33253  23.49281  23.81969  23.83450
 Alpha virt. eigenvalues --   23.85441  23.87146  23.94359  23.95146  24.02730
 Alpha virt. eigenvalues --   24.04297  24.09934  24.10054  25.75432  25.76227
 Alpha virt. eigenvalues --   25.80585  25.80792  25.87700  25.89085  26.10072
 Alpha virt. eigenvalues --   26.10136  26.10166  26.11616  26.19439  26.20603
 Alpha virt. eigenvalues --   26.45423  26.47037  26.61599  26.64717  26.81110
 Alpha virt. eigenvalues --   26.86192 215.70262 215.73890 215.77557 215.78314
 Alpha virt. eigenvalues --  215.79759 215.79988
          Condensed to atoms (all electrons):
               1          2          3          4          5          6
     1  C   16.122074  -1.277608  -2.968880   1.269834  -2.968880  -1.277608
     2  C   -1.277608  15.320183   2.490626  -6.545603   1.013098  -1.392655
     3  C   -2.968880   2.490626  13.115541  -2.722801  -1.946785   1.013098
     4  C    1.269834  -6.545603  -2.722801  25.527985  -2.722801  -6.545603
     5  C   -2.968880   1.013098  -1.946785  -2.722801  13.115541   2.490626
     6  C   -1.277608  -1.392655   1.013098  -6.545603   2.490626  15.320183
     7  C    5.197640  -0.672707  -1.680216  -2.028095  -1.680216  -0.672707
     8  C   -0.672707   3.148617   0.496899  -0.089195  -1.084995  -5.301994
     9  C   -1.680216   0.496899   0.329426   0.085357  -0.274732  -1.084995
    10  C   -2.028096  -0.089195   0.085357   0.092203   0.085357  -0.089195
    11  C   -1.680216  -1.084995  -0.274732   0.085357   0.329426   0.496899
    12  C   -0.672707  -5.301994  -1.084995  -0.089195   0.496899   3.148617
    13  H    0.050949   0.284249  -0.117324   0.012074  -0.009610  -0.020480
    14  H    0.050949  -0.020480  -0.009610   0.012074  -0.117324   0.284249
    15  H    0.053671   0.044547  -0.009030   0.003695   0.004224   0.040453
    16  H    0.053671   0.040453   0.004224   0.003695  -0.009030   0.044547
    17  Cl   0.010861  -0.400968   0.159421  -0.197537   0.159421  -0.400968
    18  Cl  -0.046365  -0.047271  -0.001132  -0.003266  -0.001132  -0.047271
    19  Cl  -0.628040   0.203767   0.072227  -0.193899  -0.461883   0.489721
    20  Cl  -0.141444  -0.083550  -0.014804  -0.002964   0.006985   0.028583
    21  Cl  -0.628040   0.489721  -0.461883  -0.193899   0.072227   0.203767
    22  Cl  -0.141444   0.028583   0.006985  -0.002964  -0.014804  -0.083550
               7          8          9         10         11         12
     1  C    5.197640  -0.672707  -1.680216  -2.028096  -1.680216  -0.672707
     2  C   -0.672707   3.148617   0.496899  -0.089195  -1.084995  -5.301994
     3  C   -1.680216   0.496899   0.329426   0.085357  -0.274732  -1.084995
     4  C   -2.028095  -0.089195   0.085357   0.092203   0.085357  -0.089195
     5  C   -1.680216  -1.084995  -0.274732   0.085357   0.329426   0.496899
     6  C   -0.672707  -5.301994  -1.084995  -0.089195   0.496899   3.148617
     7  C   16.122074  -1.277608  -2.968880   1.269834  -2.968880  -1.277608
     8  C   -1.277608  15.320183   2.490626  -6.545603   1.013098  -1.392655
     9  C   -2.968880   2.490626  13.115541  -2.722801  -1.946785   1.013098
    10  C    1.269834  -6.545603  -2.722801  25.527984  -2.722801  -6.545603
    11  C   -2.968880   1.013098  -1.946785  -2.722801  13.115541   2.490625
    12  C   -1.277608  -1.392655   1.013098  -6.545603   2.490625  15.320183
    13  H    0.053671   0.044547  -0.009030   0.003695   0.004224   0.040453
    14  H    0.053671   0.040453   0.004224   0.003695  -0.009030   0.044547
    15  H    0.050949   0.284249  -0.117324   0.012074  -0.009610  -0.020480
    16  H    0.050949  -0.020480  -0.009610   0.012074  -0.117324   0.284249
    17  Cl  -0.046365  -0.047271  -0.001132  -0.003266  -0.001132  -0.047271
    18  Cl   0.010861  -0.400968   0.159421  -0.197538   0.159421  -0.400968
    19  Cl  -0.141444  -0.083550  -0.014804  -0.002964   0.006985   0.028583
    20  Cl  -0.628040   0.203767   0.072227  -0.193899  -0.461883   0.489721
    21  Cl  -0.141444   0.028583   0.006985  -0.002964  -0.014804  -0.083550
    22  Cl  -0.628040   0.489721  -0.461883  -0.193899   0.072227   0.203767
              13         14         15         16         17         18
     1  C    0.050949   0.050949   0.053671   0.053671   0.010861  -0.046365
     2  C    0.284249  -0.020480   0.044547   0.040453  -0.400968  -0.047271
     3  C   -0.117324  -0.009610  -0.009030   0.004224   0.159421  -0.001132
     4  C    0.012074   0.012074   0.003695   0.003695  -0.197537  -0.003266
     5  C   -0.009610  -0.117324   0.004224  -0.009030   0.159421  -0.001132
     6  C   -0.020480   0.284249   0.040453   0.044547  -0.400968  -0.047271
     7  C    0.053671   0.053671   0.050949   0.050949  -0.046365   0.010861
     8  C    0.044547   0.040453   0.284249  -0.020480  -0.047271  -0.400968
     9  C   -0.009030   0.004224  -0.117324  -0.009610  -0.001132   0.159421
    10  C    0.003695   0.003695   0.012074   0.012074  -0.003266  -0.197538
    11  C    0.004224  -0.009030  -0.009610  -0.117324  -0.001132   0.159421
    12  C    0.040453   0.044547  -0.020480   0.284249  -0.047271  -0.400968
    13  H    0.529288  -0.000091   0.003100  -0.000102  -0.001785   0.000135
    14  H   -0.000091   0.529288  -0.000102   0.003100  -0.001785   0.000135
    15  H    0.003100  -0.000102   0.529288  -0.000091   0.000135  -0.001785
    16  H   -0.000102   0.003100  -0.000091   0.529288   0.000135  -0.001785
    17  Cl  -0.001785  -0.001785   0.000135   0.000135  17.530571  -0.000012
    18  Cl   0.000135   0.000135  -0.001785  -0.001785  -0.000012  17.530571
    19  Cl   0.001114  -0.018810   0.000053  -0.000449  -0.178873   0.000042
    20  Cl   0.000053  -0.000449   0.001114  -0.018810   0.000042  -0.178873
    21  Cl  -0.018810   0.001114  -0.000449   0.000053  -0.178873   0.000042
    22  Cl  -0.000449   0.000053  -0.018810   0.001114   0.000042  -0.178873
              19         20         21         22
     1  C   -0.628040  -0.141444  -0.628040  -0.141444
     2  C    0.203767  -0.083550   0.489721   0.028583
     3  C    0.072227  -0.014804  -0.461883   0.006985
     4  C   -0.193899  -0.002964  -0.193899  -0.002964
     5  C   -0.461883   0.006985   0.072227  -0.014804
     6  C    0.489721   0.028583   0.203767  -0.083550
     7  C   -0.141444  -0.628040  -0.141444  -0.628040
     8  C   -0.083550   0.203767   0.028583   0.489721
     9  C   -0.014804   0.072227   0.006985  -0.461883
    10  C   -0.002964  -0.193899  -0.002964  -0.193899
    11  C    0.006985  -0.461883  -0.014804   0.072227
    12  C    0.028583   0.489721  -0.083550   0.203767
    13  H    0.001114   0.000053  -0.018810  -0.000449
    14  H   -0.018810  -0.000449   0.001114   0.000053
    15  H    0.000053   0.001114  -0.000449  -0.018810
    16  H   -0.000449  -0.018810   0.000053   0.001114
    17  Cl  -0.178873   0.000042  -0.178873   0.000042
    18  Cl   0.000042  -0.178873   0.000042  -0.178873
    19  Cl  17.397219  -0.000136  -0.002447  -0.000221
    20  Cl  -0.000136  17.397219  -0.000221  -0.002447
    21  Cl  -0.002447  -0.000221  17.397219  -0.000136
    22  Cl  -0.000221  -0.002447  -0.000136  17.397219
 Mulliken charges:
               1
     1  C    0.002602
     2  C   -0.643716
     3  C   -0.481609
     4  C    0.245553
     5  C   -0.481609
     6  C   -0.643716
     7  C    0.002602
     8  C   -0.643716
     9  C   -0.481609
    10  C    0.245553
    11  C   -0.481609
    12  C   -0.643716
    13  H    0.150132
    14  H    0.150132
    15  H    0.150132
    16  H    0.150132
    17  Cl   0.646611
    18  Cl   0.646611
    19  Cl   0.527810
    20  Cl   0.527810
    21  Cl   0.527810
    22  Cl   0.527810
 Sum of Mulliken charges =  -0.00000
 Mulliken charges with hydrogens summed into heavy atoms:
               1
     1  C    0.002602
     2  C   -0.493585
     3  C   -0.481609
     4  C    0.245553
     5  C   -0.481609
     6  C   -0.493585
     7  C    0.002602
     8  C   -0.493585
     9  C   -0.481609
    10  C    0.245553
    11  C   -0.481609
    12  C   -0.493585
    17  Cl   0.646611
    18  Cl   0.646611
    19  Cl   0.527810
    20  Cl   0.527810
    21  Cl   0.527810
    22  Cl   0.527810
 Electronic spatial extent (au):  <R**2>=          10680.8097
 Charge=             -0.0000 electrons
 Dipole moment (field-independent basis, Debye):
    X=              0.0000    Y=              0.0000    Z=             -0.0000  Tot=              0.0000
 Quadrupole moment (field-independent basis, Debye-Ang):
   XX=           -158.9948   YY=           -142.6363   ZZ=           -147.1643
   XY=             -0.0000   XZ=             -0.0000   YZ=             -0.0000
 Traceless Quadrupole moment (field-independent basis, Debye-Ang):
   XX=             -9.3964   YY=              6.9622   ZZ=              2.4342
   XY=             -0.0000   XZ=             -0.0000   YZ=             -0.0000
 Octapole moment (field-independent basis, Debye-Ang**2):
  XXX=              0.0000  YYY=              0.0000  ZZZ=              0.0000  XYY=             -0.0000
  XXY=              0.0000  XXZ=              0.0000  XZZ=              0.0000  YZZ=              0.0000
  YYZ=              0.0000  XYZ=             -0.0001
 Hexadecapole moment (field-independent basis, Debye-Ang**3):
 XXXX=         -10842.8791 YYYY=          -2789.1019 ZZZZ=           -170.0428 XXXY=              0.0000
 XXXZ=             -0.0000 YYYX=             -0.0000 YYYZ=             -0.0000 ZZZX=             -0.0000
 ZZZY=             -0.0000 XXYY=          -2293.1293 XXZZ=          -1865.7087 YYZZ=           -524.5097
 XXYZ=             -0.0000 YYXZ=             -0.0000 ZZXY=             -0.0000
 N-N= 1.918103443706D+03 E-N=-1.146458945513D+04  KE= 3.212699793653D+03
 1\1\GINC-CN027\FOpt\RB3LYP\6-311+G(d,p)\C12H4Cl6\20CY91R06\24-Mar-2022
 \0\\# opt b3lyp/6-311+g(d,p) scf=xqc\\Title Card Required\\0,1\C,-0.93
 70450649,0.5280387093,0.9099493244\C,0.3953448986,0.5904634886,0.48274
 62742\C,1.097890389,1.7885422579,0.4762984552\C,0.4997961866,2.9829144
 713,0.8976207224\C,-0.8325962815,2.922721532,1.3252434835\C,-1.5331940
 101,1.7234984349,1.330835083\C,-1.6901228086,-0.7586115862,0.916410922
 1\C,-1.0939953972,-1.9540590287,0.4954598136\C,-1.7945933599,-3.153281
 9917,0.501050684\C,-3.1269643391,-3.2134871891,0.928738677\C,-3.725036
 9499,-2.0191272928,1.3501264974\C,-3.0224914707,-0.8210485161,1.343678
 6604\H,0.9212379381,-0.2896348328,0.1442290811\H,-2.5565811636,1.75361
 69387,1.6736207942\H,-0.0706266814,-1.9841670145,0.1526181376\H,-3.548
 366144,0.0590393283,1.6822516193\Cl,1.3755819522,4.4792142193,0.890106
 2161\Cl,-4.002750378,-4.7097867814,0.9362523539\Cl,-1.6606786033,4.360
 5949884,1.8680566162\Cl,-5.3817966466,-1.9971319679,1.9001356043\Cl,2.
 7546781701,1.7665309126,-0.0736254069\Cl,-0.9665395547,-4.591139181,-0
 .0418490339\\Version=EM64L-G16RevB.01\State=1-A\HF=-3221.1315455\RMSD=
 2.772e-09\RMSF=1.775e-04\Dipole=0.,0.,0.\Quadrupole=1.7534609,-3.98625
 39,2.232793,-5.1199262,-0.9430232,0.5982485\PG=C01 [X(C12H4Cl6)]\\@


 WE HAVE LEFT UNDONE THOSE THINGS WHICH WE OUGHT TO HAVE DONE,
 AND WE HAVE DONE THOSE THINGS WHICH WE OUGHT NOT TO HAVE DONE.
                   BOOK OF COMMON PRAYER                      
 Job cpu time:       0 days  1 hours 44 minutes 20.1 seconds.
 Elapsed time:       0 days  0 hours 52 minutes 16.3 seconds.
 File lengths (MBytes):  RWF=    134 Int=      0 D2E=      0 Chk=     17 Scr=      1
 Normal termination of Gaussian 16 at Thu Mar 24 11:38:41 2022.
