 Entering Gaussian System, Link 0=g16
 Input=3,3prime-Dichlorobiphenyl.gjf
 Output=3,3prime-Dichlorobiphenyl.log
 Initial command:
 /usr/local/g16/l1.exe "/scratch/pkc/Gau-3012.inp" -scrdir="/scratch/pkc/"
 Entering Link 1 = /usr/local/g16/l1.exe PID=      3013.
  
 Copyright (c) 1988-2017, Gaussian, Inc.  All Rights Reserved.
  
 This is part of the Gaussian(R) 16 program.  It is based on
 the Gaussian(R) 09 system (copyright 2009, Gaussian, Inc.),
 the Gaussian(R) 03 system (copyright 2003, Gaussian, Inc.),
 the Gaussian(R) 98 system (copyright 1998, Gaussian, Inc.),
 the Gaussian(R) 94 system (copyright 1995, Gaussian, Inc.),
 the Gaussian 92(TM) system (copyright 1992, Gaussian, Inc.),
 the Gaussian 90(TM) system (copyright 1990, Gaussian, Inc.),
 the Gaussian 88(TM) system (copyright 1988, Gaussian, Inc.),
 the Gaussian 86(TM) system (copyright 1986, Carnegie Mellon
 University), and the Gaussian 82(TM) system (copyright 1983,
 Carnegie Mellon University). Gaussian is a federally registered
 trademark of Gaussian, Inc.
  
 This software contains proprietary and confidential information,
 including trade secrets, belonging to Gaussian, Inc.
  
 This software is provided under written license and may be
 used, copied, transmitted, or stored only in accord with that
 written license.
  
 The following legend is applicable only to US Government
 contracts under FAR:
  
                    RESTRICTED RIGHTS LEGEND
  
 Use, reproduction and disclosure by the US Government is
 subject to restrictions as set forth in subparagraphs (a)
 and (c) of the Commercial Computer Software - Restricted
 Rights clause in FAR 52.227-19.
  
 Gaussian, Inc.
 340 Quinnipiac St., Bldg. 40, Wallingford CT 06492
  
  
 ---------------------------------------------------------------
 Warning -- This program may not be used in any manner that
 competes with the business of Gaussian, Inc. or will provide
 assistance to any competitor of Gaussian, Inc.  The licensee
 of this program is prohibited from giving any competitor of
 Gaussian, Inc. access to this program.  By using this program,
 the user acknowledges that Gaussian, Inc. is engaged in the
 business of creating and licensing software in the field of
 computational chemistry and represents and warrants to the
 licensee that it is not a competitor of Gaussian, Inc. and that
 it will not use this program in any manner prohibited above.
 ---------------------------------------------------------------
  

 Cite this work as:
 Gaussian 16, Revision B.01,
 M. J. Frisch, G. W. Trucks, H. B. Schlegel, G. E. Scuseria, 
 M. A. Robb, J. R. Cheeseman, G. Scalmani, V. Barone, 
 G. A. Petersson, H. Nakatsuji, X. Li, M. Caricato, A. V. Marenich, 
 J. Bloino, B. G. Janesko, R. Gomperts, B. Mennucci, H. P. Hratchian, 
 J. V. Ortiz, A. F. Izmaylov, J. L. Sonnenberg, D. Williams-Young, 
 F. Ding, F. Lipparini, F. Egidi, J. Goings, B. Peng, A. Petrone, 
 T. Henderson, D. Ranasinghe, V. G. Zakrzewski, J. Gao, N. Rega, 
 G. Zheng, W. Liang, M. Hada, M. Ehara, K. Toyota, R. Fukuda, 
 J. Hasegawa, M. Ishida, T. Nakajima, Y. Honda, O. Kitao, H. Nakai, 
 T. Vreven, K. Throssell, J. A. Montgomery, Jr., J. E. Peralta, 
 F. Ogliaro, M. J. Bearpark, J. J. Heyd, E. N. Brothers, K. N. Kudin, 
 V. N. Staroverov, T. A. Keith, R. Kobayashi, J. Normand, 
 K. Raghavachari, A. P. Rendell, J. C. Burant, S. S. Iyengar, 
 J. Tomasi, M. Cossi, J. M. Millam, M. Klene, C. Adamo, R. Cammi, 
 J. W. Ochterski, R. L. Martin, K. Morokuma, O. Farkas, 
 J. B. Foresman, and D. J. Fox, Gaussian, Inc., Wallingford CT, 2016.
 
 ******************************************
 Gaussian 16:  EM64L-G16RevB.01 20-Dec-2017
                14-Mar-2022 
 ******************************************
 %mem=10GB
 %nprocshared=4
 Will use up to    4 processors via shared memory.
 --------------------------------
 # opt b3lyp/6-311+g(d,p) scf=xqc
 --------------------------------
 1/18=20,19=15,26=3,38=1/1,3;
 2/9=110,12=2,17=6,18=5,40=1/2;
 3/5=4,6=6,7=111,11=2,25=1,30=1,71=1,74=-5/1,2,3;
 4//1;
 5/5=2,8=3,13=1,38=5/2,8;
 6/7=2,8=2,9=2,10=2,28=1/1;
 7//1,2,3,16;
 1/18=20,19=15,26=3/3(2);
 2/9=110/2;
 99//99;
 2/9=110/2;
 3/5=4,6=6,7=111,11=2,25=1,30=1,71=1,74=-5/1,2,3;
 4/5=5,16=3,69=1/1;
 5/5=2,8=3,13=1,38=5/2,8;
 7//1,2,3,16;
 1/18=20,19=15,26=3/3(-5);
 2/9=110/2;
 6/7=2,8=2,9=2,10=2,19=2,28=1/1;
 99/9=1/99;
 -------------------
 Title Card Required
 -------------------
 Symbolic Z-matrix:
 Charge =  0 Multiplicity = 1
 C                    -3.44731  -2.79229  -0.13765 
 C                    -2.05384  -2.89555  -0.24494 
 C                    -1.2291   -2.01041   0.46235 
 C                    -1.79783  -1.02202   1.27693 
 C                    -3.19129  -0.91876   1.38422 
 C                    -4.01603  -1.80389   0.67693 
 C                    -4.35362  -3.76497  -0.91489 
 C                    -3.78489  -4.75336  -1.72948 
 C                    -4.60963  -5.6385   -2.43677 
 C                    -6.0031   -5.53524  -2.32947 
 C                    -6.57182  -4.54685  -1.51488 
 C                    -5.74708  -3.66171  -0.8076 
 H                    -1.61961  -3.65021  -0.8669 
 H                    -1.16812  -0.3462    1.81696 
 H                    -3.62553  -0.16409   2.00617 
 H                    -5.07998  -1.72505   0.75885 
 H                    -2.72095  -4.8322   -1.8114 
 H                    -6.6328   -6.21106  -2.8695 
 H                    -7.63576  -4.46801  -1.43296 
 H                    -6.18132  -2.90705  -0.18564 
 Cl                    0.52093  -2.1401    0.3276 
 Cl                   -3.89538  -6.87981  -3.45979 
 

 GradGradGradGradGradGradGradGradGradGradGradGradGradGradGradGradGradGrad
 Berny optimization.
 Initialization pass.
                           ----------------------------
                           !    Initial Parameters    !
                           ! (Angstroms and Degrees)  !
 --------------------------                            --------------------------
 ! Name  Definition              Value          Derivative Info.                !
 --------------------------------------------------------------------------------
 ! R1    R(1,2)                  1.4014         estimate D2E/DX2                !
 ! R2    R(1,6)                  1.4014         estimate D2E/DX2                !
 ! R3    R(1,7)                  1.54           estimate D2E/DX2                !
 ! R4    R(2,3)                  1.4014         estimate D2E/DX2                !
 ! R5    R(2,13)                 1.07           estimate D2E/DX2                !
 ! R6    R(3,4)                  1.4014         estimate D2E/DX2                !
 ! R7    R(3,21)                 1.76           estimate D2E/DX2                !
 ! R8    R(4,5)                  1.4014         estimate D2E/DX2                !
 ! R9    R(4,14)                 1.07           estimate D2E/DX2                !
 ! R10   R(5,6)                  1.4014         estimate D2E/DX2                !
 ! R11   R(5,15)                 1.07           estimate D2E/DX2                !
 ! R12   R(6,16)                 1.07           estimate D2E/DX2                !
 ! R13   R(7,8)                  1.4014         estimate D2E/DX2                !
 ! R14   R(7,12)                 1.4014         estimate D2E/DX2                !
 ! R15   R(8,9)                  1.4014         estimate D2E/DX2                !
 ! R16   R(8,17)                 1.07           estimate D2E/DX2                !
 ! R17   R(9,10)                 1.4014         estimate D2E/DX2                !
 ! R18   R(9,22)                 1.76           estimate D2E/DX2                !
 ! R19   R(10,11)                1.4014         estimate D2E/DX2                !
 ! R20   R(10,18)                1.07           estimate D2E/DX2                !
 ! R21   R(11,12)                1.4014         estimate D2E/DX2                !
 ! R22   R(11,19)                1.07           estimate D2E/DX2                !
 ! R23   R(12,20)                1.07           estimate D2E/DX2                !
 ! A1    A(2,1,6)              120.0            estimate D2E/DX2                !
 ! A2    A(2,1,7)              120.0            estimate D2E/DX2                !
 ! A3    A(6,1,7)              120.0            estimate D2E/DX2                !
 ! A4    A(1,2,3)              120.0            estimate D2E/DX2                !
 ! A5    A(1,2,13)             120.0            estimate D2E/DX2                !
 ! A6    A(3,2,13)             120.0            estimate D2E/DX2                !
 ! A7    A(2,3,4)              120.0            estimate D2E/DX2                !
 ! A8    A(2,3,21)             120.0            estimate D2E/DX2                !
 ! A9    A(4,3,21)             120.0            estimate D2E/DX2                !
 ! A10   A(3,4,5)              120.0            estimate D2E/DX2                !
 ! A11   A(3,4,14)             120.0            estimate D2E/DX2                !
 ! A12   A(5,4,14)             120.0            estimate D2E/DX2                !
 ! A13   A(4,5,6)              120.0            estimate D2E/DX2                !
 ! A14   A(4,5,15)             120.0            estimate D2E/DX2                !
 ! A15   A(6,5,15)             120.0            estimate D2E/DX2                !
 ! A16   A(1,6,5)              120.0            estimate D2E/DX2                !
 ! A17   A(1,6,16)             120.0            estimate D2E/DX2                !
 ! A18   A(5,6,16)             120.0            estimate D2E/DX2                !
 ! A19   A(1,7,8)              120.0            estimate D2E/DX2                !
 ! A20   A(1,7,12)             120.0            estimate D2E/DX2                !
 ! A21   A(8,7,12)             120.0            estimate D2E/DX2                !
 ! A22   A(7,8,9)              120.0            estimate D2E/DX2                !
 ! A23   A(7,8,17)             120.0            estimate D2E/DX2                !
 ! A24   A(9,8,17)             120.0            estimate D2E/DX2                !
 ! A25   A(8,9,10)             120.0            estimate D2E/DX2                !
 ! A26   A(8,9,22)             120.0            estimate D2E/DX2                !
 ! A27   A(10,9,22)            120.0            estimate D2E/DX2                !
 ! A28   A(9,10,11)            120.0            estimate D2E/DX2                !
 ! A29   A(9,10,18)            120.0            estimate D2E/DX2                !
 ! A30   A(11,10,18)           120.0            estimate D2E/DX2                !
 ! A31   A(10,11,12)           120.0            estimate D2E/DX2                !
 ! A32   A(10,11,19)           120.0            estimate D2E/DX2                !
 ! A33   A(12,11,19)           120.0            estimate D2E/DX2                !
 ! A34   A(7,12,11)            120.0            estimate D2E/DX2                !
 ! A35   A(7,12,20)            120.0            estimate D2E/DX2                !
 ! A36   A(11,12,20)           120.0            estimate D2E/DX2                !
 ! D1    D(6,1,2,3)              0.0001         estimate D2E/DX2                !
 ! D2    D(6,1,2,13)           180.0            estimate D2E/DX2                !
 ! D3    D(7,1,2,3)           -180.0            estimate D2E/DX2                !
 ! D4    D(7,1,2,13)            -0.0001         estimate D2E/DX2                !
 ! D5    D(2,1,6,5)             -0.0001         estimate D2E/DX2                !
 ! D6    D(2,1,6,16)           180.0            estimate D2E/DX2                !
 ! D7    D(7,1,6,5)            180.0            estimate D2E/DX2                !
 ! D8    D(7,1,6,16)             0.0            estimate D2E/DX2                !
 ! D9    D(2,1,7,8)             -0.0001         estimate D2E/DX2                !
 ! D10   D(2,1,7,12)           179.9998         estimate D2E/DX2                !
 ! D11   D(6,1,7,8)            179.9999         estimate D2E/DX2                !
 ! D12   D(6,1,7,12)            -0.0002         estimate D2E/DX2                !
 ! D13   D(1,2,3,4)              0.0            estimate D2E/DX2                !
 ! D14   D(1,2,3,21)           180.0            estimate D2E/DX2                !
 ! D15   D(13,2,3,4)          -179.9999         estimate D2E/DX2                !
 ! D16   D(13,2,3,21)            0.0001         estimate D2E/DX2                !
 ! D17   D(2,3,4,5)             -0.0001         estimate D2E/DX2                !
 ! D18   D(2,3,4,14)           180.0            estimate D2E/DX2                !
 ! D19   D(21,3,4,5)           179.9999         estimate D2E/DX2                !
 ! D20   D(21,3,4,14)            0.0            estimate D2E/DX2                !
 ! D21   D(3,4,5,6)              0.0001         estimate D2E/DX2                !
 ! D22   D(3,4,5,15)          -179.9999         estimate D2E/DX2                !
 ! D23   D(14,4,5,6)          -180.0            estimate D2E/DX2                !
 ! D24   D(14,4,5,15)            0.0            estimate D2E/DX2                !
 ! D25   D(4,5,6,1)              0.0            estimate D2E/DX2                !
 ! D26   D(4,5,6,16)           179.9999         estimate D2E/DX2                !
 ! D27   D(15,5,6,1)           180.0            estimate D2E/DX2                !
 ! D28   D(15,5,6,16)           -0.0001         estimate D2E/DX2                !
 ! D29   D(1,7,8,9)            179.9999         estimate D2E/DX2                !
 ! D30   D(1,7,8,17)             0.0001         estimate D2E/DX2                !
 ! D31   D(12,7,8,9)             0.0001         estimate D2E/DX2                !
 ! D32   D(12,7,8,17)         -179.9998         estimate D2E/DX2                !
 ! D33   D(1,7,12,11)         -179.9999         estimate D2E/DX2                !
 ! D34   D(1,7,12,20)            0.0            estimate D2E/DX2                !
 ! D35   D(8,7,12,11)           -0.0001         estimate D2E/DX2                !
 ! D36   D(8,7,12,20)          179.9999         estimate D2E/DX2                !
 ! D37   D(7,8,9,10)             0.0            estimate D2E/DX2                !
 ! D38   D(7,8,9,22)           180.0            estimate D2E/DX2                !
 ! D39   D(17,8,9,10)          179.9998         estimate D2E/DX2                !
 ! D40   D(17,8,9,22)           -0.0002         estimate D2E/DX2                !
 ! D41   D(8,9,10,11)            0.0            estimate D2E/DX2                !
 ! D42   D(8,9,10,18)         -179.9999         estimate D2E/DX2                !
 ! D43   D(22,9,10,11)         180.0            estimate D2E/DX2                !
 ! D44   D(22,9,10,18)           0.0001         estimate D2E/DX2                !
 ! D45   D(9,10,11,12)           0.0            estimate D2E/DX2                !
 ! D46   D(9,10,11,19)        -179.9998         estimate D2E/DX2                !
 ! D47   D(18,10,11,12)        179.9999         estimate D2E/DX2                !
 ! D48   D(18,10,11,19)          0.0001         estimate D2E/DX2                !
 ! D49   D(10,11,12,7)           0.0            estimate D2E/DX2                !
 ! D50   D(10,11,12,20)       -179.9999         estimate D2E/DX2                !
 ! D51   D(19,11,12,7)         179.9999         estimate D2E/DX2                !
 ! D52   D(19,11,12,20)         -0.0001         estimate D2E/DX2                !
 --------------------------------------------------------------------------------
 Trust Radius=3.00D-01 FncErr=1.00D-07 GrdErr=1.00D-06 EigMax=2.50D+02 EigMin=1.00D-04
 Number of steps in this run=    121 maximum allowed number of steps=    132.
 GradGradGradGradGradGradGradGradGradGradGradGradGradGradGradGradGradGrad

                          Input orientation:                          
 ---------------------------------------------------------------------
 Center     Atomic      Atomic             Coordinates (Angstroms)
 Number     Number       Type             X           Y           Z
 ---------------------------------------------------------------------
      1          6           0       -3.447308   -2.792288   -0.137651
      2          6           0       -2.053842   -2.895548   -0.244945
      3          6           0       -1.229101   -2.010412    0.462346
      4          6           0       -1.797827   -1.022017    1.276930
      5          6           0       -3.191293   -0.918755    1.384222
      6          6           0       -4.016033   -1.803891    0.676932
      7          6           0       -4.353616   -3.764965   -0.914892
      8          6           0       -3.784891   -4.753361   -1.729477
      9          6           0       -4.609631   -5.638498   -2.436765
     10          6           0       -6.003097   -5.535240   -2.329469
     11          6           0       -6.571822   -4.546845   -1.514884
     12          6           0       -5.747082   -3.661708   -0.807596
     13          1           0       -1.619607   -3.650211   -0.866896
     14          1           0       -1.168119   -0.346196    1.816962
     15          1           0       -3.625527   -0.164092    2.006173
     16          1           0       -5.079975   -1.725050    0.758852
     17          1           0       -2.720948   -4.832202   -1.811398
     18          1           0       -6.632805   -6.211063   -2.869499
     19          1           0       -7.635765   -4.468007   -1.432959
     20          1           0       -6.181316   -2.907047   -0.185641
     21         17           0        0.520934   -2.140096    0.327598
     22         17           0       -3.895376   -6.879811   -3.459792
 ---------------------------------------------------------------------
                    Distance matrix (angstroms):
                    1          2          3          4          5
     1  C    0.000000
     2  C    1.401400   0.000000
     3  C    2.427296   1.401400   0.000000
     4  C    2.802800   2.427296   1.401400   0.000000
     5  C    2.427296   2.802800   2.427296   1.401400   0.000000
     6  C    1.401400   2.427296   2.802800   2.427296   1.401400
     7  C    1.540000   2.548270   3.838989   4.342800   3.838989
     8  C    2.548270   2.941400   4.342800   5.187469   4.975106
     9  C    3.838989   4.342800   5.744200   6.558176   6.235992
    10  C    4.342800   5.187469   6.558176   7.145600   6.558176
    11  C    3.838989   4.975106   6.235992   6.558176   5.744200
    12  C    2.548270   3.813607   4.975106   5.187469   4.342800
    13  H    2.146700   1.070000   2.146700   3.396345   3.872800
    14  H    3.872800   3.396345   2.146700   1.070000   2.146700
    15  H    3.396345   3.872800   3.396345   2.146700   1.070000
    16  H    2.146700   3.396345   3.872800   3.396345   2.146700
    17  H    2.736837   2.578650   3.918930   4.990735   5.074276
    18  H    5.412800   6.232802   7.612271   8.215600   7.612271
    19  H    4.693509   5.919617   7.118798   7.300676   6.347206
    20  H    2.736837   4.127917   5.074276   4.990735   3.918930
    21  Cl   4.048303   2.743718   1.760000   2.743718   4.048303
    22  Cl   5.286324   5.440665   6.797295   7.819846   7.713260
                    6          7          8          9         10
     6  C    0.000000
     7  C    2.548270   0.000000
     8  C    3.813607   1.401400   0.000000
     9  C    4.975106   2.427296   1.401400   0.000000
    10  C    5.187469   2.802800   2.427296   1.401400   0.000000
    11  C    4.342800   2.427296   2.802800   2.427296   1.401400
    12  C    2.941400   1.401400   2.427296   2.802800   2.427296
    13  H    3.396345   2.736837   2.578650   3.918930   4.990735
    14  H    3.396345   5.412800   6.232802   7.612271   8.215600
    15  H    2.146700   4.693509   5.919617   7.118798   7.300676
    16  H    1.070000   2.736837   4.127917   5.074276   4.990735
    17  H    4.127917   2.146700   1.070000   2.146700   3.396345
    18  H    6.232802   3.872800   3.396345   2.146700   1.070000
    19  H    4.965039   3.396345   3.872800   3.396345   2.146700
    20  H    2.578650   2.146700   3.396345   3.872800   3.396345
    21  Cl   4.562800   5.286324   5.440665   6.797295   7.819846
    22  Cl   6.549198   4.048303   2.743718   1.760000   2.743718
                   11         12         13         14         15
    11  C    0.000000
    12  C    1.401400   0.000000
    13  H    5.074276   4.127917   0.000000
    14  H    7.612271   6.232802   4.280590   0.000000
    15  H    6.347206   4.965039   4.942800   2.471400   0.000000
    16  H    3.918930   2.578650   4.280590   4.280590   2.471400
    17  H    3.872800   3.396345   1.871400   5.974992   6.097816
    18  H    2.146700   3.396345   5.974992   9.285600   8.329571
    19  H    1.070000   2.146700   6.097816   8.329571   6.814200
    20  H    2.146700   1.070000   4.671787   5.974992   4.342800
    21  Cl   7.713260   6.549198   2.879094   2.879094   4.890332
    22  Cl   4.048303   4.562800   4.725732   8.830073   8.663168
                   16         17         18         19         20
    16  H    0.000000
    17  H    4.671787   0.000000
    18  H    5.974992   4.280590   0.000000
    19  H    4.342800   4.942800   2.471400   0.000000
    20  H    1.871400   4.280590   4.280590   2.471400   0.000000
    21  Cl   5.632800   4.725732   8.830073   8.663168   6.765486
    22  Cl   6.765486   2.879094   2.879094   4.890332   5.632800
                   21         22
    21  Cl   0.000000
    22  Cl   7.504200   0.000000
 Stoichiometry    C12H8Cl2
 Framework group  C1[X(C12H8Cl2)]
 Deg. of freedom    60
 Full point group                 C1      NOp   1
 Largest Abelian subgroup         C1      NOp   1
 Largest concise Abelian subgroup C1      NOp   1
                         Standard orientation:                         
 ---------------------------------------------------------------------
 Center     Atomic      Atomic             Coordinates (Angstroms)
 Number     Number       Type             X           Y           Z
 ---------------------------------------------------------------------
      1          6           0        0.770000    0.779004   -0.000001
      2          6           0        1.470700   -0.434644   -0.000001
      3          6           0        2.872100   -0.434644    0.000000
      4          6           0        3.572800    0.779004    0.000001
      5          6           0        2.872100    1.992652   -0.000002
      6          6           0        1.470700    1.992652   -0.000003
      7          6           0       -0.770000    0.779004   -0.000001
      8          6           0       -1.470700   -0.434644   -0.000002
      9          6           0       -2.872100   -0.434644   -0.000000
     10          6           0       -3.572800    0.779004    0.000002
     11          6           0       -2.872100    1.992652    0.000003
     12          6           0       -1.470700    1.992652    0.000002
     13          1           0        0.935700   -1.361292    0.000001
     14          1           0        4.642800    0.779004    0.000001
     15          1           0        3.407100    2.919299   -0.000004
     16          1           0        0.935700    2.919299   -0.000004
     17          1           0       -0.935700   -1.361292   -0.000001
     18          1           0       -4.642800    0.779004    0.000005
     19          1           0       -3.407100    2.919299    0.000008
     20          1           0       -0.935700    2.919299    0.000004
     21         17           0        3.752100   -1.958849    0.000002
     22         17           0       -3.752100   -1.958849   -0.000001
 ---------------------------------------------------------------------
 Rotational constants (GHZ):           0.9436665           0.2694871           0.2096239
 Standard basis: 6-311+G(d,p) (5D, 7F)
 There are   386 symmetry adapted cartesian basis functions of A   symmetry.
 There are   372 symmetry adapted basis functions of A   symmetry.
   372 basis functions,   602 primitive gaussians,   386 cartesian basis functions
    57 alpha electrons       57 beta electrons
       nuclear repulsion energy       939.8948993395 Hartrees.
 NAtoms=   22 NActive=   22 NUniq=   22 SFac= 1.00D+00 NAtFMM=   60 NAOKFM=F Big=F
 Integral buffers will be    131072 words long.
 Raffenetti 2 integral format.
 Two-electron integral symmetry is turned on.
 One-electron integrals computed using PRISM.
 NBasis=   372 RedAO= T EigKep=  1.32D-06  NBF=   372
 NBsUse=   368 1.00D-06 EigRej=  8.46D-07 NBFU=   368
 ExpMin= 4.38D-02 ExpMax= 1.06D+05 ExpMxC= 3.62D+03 IAcc=3 IRadAn=         5 AccDes= 0.00D+00
 Harris functional with IExCor=  402 and IRadAn=       5 diagonalized for initial guess.
 HarFok:  IExCor=  402 AccDes= 0.00D+00 IRadAn=         5 IDoV= 1 UseB2=F ITyADJ=14
 ICtDFT=  3500011 ScaDFX=  1.000000  1.000000  1.000000  1.000000
 FoFCou: FMM=F IPFlag=           0 FMFlag=      100000 FMFlg1=           0
         NFxFlg=           0 DoJE=T BraDBF=F KetDBF=T FulRan=T
         wScrn=  0.000000 ICntrl=       500 IOpCl=  0 I1Cent=   200000004 NGrid=           0
         NMat0=    1 NMatS0=      1 NMatT0=    0 NMatD0=    1 NMtDS0=    0 NMtDT0=    0
 Petite list used in FoFCou.
 Requested convergence on RMS density matrix=1.00D-08 within  32 cycles.
 Requested convergence on MAX density matrix=1.00D-06.
 Requested convergence on             energy=1.00D-06.
 No special actions if energy rises.
 SCF Done:  E(RB3LYP) =  -1382.66043563     A.U. after   14 cycles
            NFock= 14  Conv=0.86D-08     -V/T= 2.0032
 QCSCF skips out because SCF is already converged.

 **********************************************************************

            Population analysis using the SCF Density.

 **********************************************************************

 Orbital symmetries:
       Occupied  (A) (A) (A) (A) (A) (A) (A) (A) (A) (A) (A) (A)
                 (A) (A) (A) (A) (A) (A) (A) (A) (A) (A) (A) (A)
                 (A) (A) (A) (A) (A) (A) (A) (A) (A) (A) (A) (A)
                 (A) (A) (A) (A) (A) (A) (A) (A) (A) (A) (A) (A)
                 (A) (A) (A) (A) (A) (A) (A) (A) (A)
       Virtual   (A) (A) (A) (A) (A) (A) (A) (A) (A) (A) (A) (A)
                 (A) (A) (A) (A) (A) (A) (A) (A) (A) (A) (A) (A)
                 (A) (A) (A) (A) (A) (A) (A) (A) (A) (A) (A) (A)
                 (A) (A) (A) (A) (A) (A) (A) (A) (A) (A) (A) (A)
                 (A) (A) (A) (A) (A) (A) (A) (A) (A) (A) (A) (A)
                 (A) (A) (A) (A) (A) (A) (A) (A) (A) (A) (A) (A)
                 (A) (A) (A) (A) (A) (A) (A) (A) (A) (A) (A) (A)
                 (A) (A) (A) (A) (A) (A) (A) (A) (A) (A) (A) (A)
                 (A) (A) (A) (A) (A) (A) (A) (A) (A) (A) (A) (A)
                 (A) (A) (A) (A) (A) (A) (A) (A) (A) (A) (A) (A)
                 (A) (A) (A) (A) (A) (A) (A) (A) (A) (A) (A) (A)
                 (A) (A) (A) (A) (A) (A) (A) (A) (A) (A) (A) (A)
                 (A) (A) (A) (A) (A) (A) (A) (A) (A) (A) (A) (A)
                 (A) (A) (A) (A) (A) (A) (A) (A) (A) (A) (A) (A)
                 (A) (A) (A) (A) (A) (A) (A) (A) (A) (A) (A) (A)
                 (A) (A) (A) (A) (A) (A) (A) (A) (A) (A) (A) (A)
                 (A) (A) (A) (A) (A) (A) (A) (A) (A) (A) (A) (A)
                 (A) (A) (A) (A) (A) (A) (A) (A) (A) (A) (A) (A)
                 (A) (A) (A) (A) (A) (A) (A) (A) (A) (A) (A) (A)
                 (A) (A) (A) (A) (A) (A) (A) (A) (A) (A) (A) (A)
                 (A) (A) (A) (A) (A) (A) (A) (A) (A) (A) (A) (A)
                 (A) (A) (A) (A) (A) (A) (A) (A) (A) (A) (A) (A)
                 (A) (A) (A) (A) (A) (A) (A) (A) (A) (A) (A) (A)
                 (A) (A) (A) (A) (A) (A) (A) (A) (A) (A) (A) (A)
                 (A) (A) (A) (A) (A) (A) (A) (A) (A) (A) (A) (A)
                 (A) (A) (A) (A) (A) (A) (A) (A) (A) (A) (A)
 The electronic state is 1-A.
 Alpha  occ. eigenvalues -- -101.56243-101.56243 -10.25332 -10.25332 -10.21458
 Alpha  occ. eigenvalues --  -10.21437 -10.19979 -10.19978 -10.19964 -10.19964
 Alpha  occ. eigenvalues --  -10.19856 -10.19856 -10.19481 -10.19480  -9.47683
 Alpha  occ. eigenvalues --   -9.47683  -7.24148  -7.24148  -7.23166  -7.23166
 Alpha  occ. eigenvalues --   -7.23132  -7.23132  -0.90756  -0.89981  -0.86160
 Alpha  occ. eigenvalues --   -0.84286  -0.79406  -0.75961  -0.75716  -0.73850
 Alpha  occ. eigenvalues --   -0.65234  -0.63844  -0.61587  -0.59094  -0.55518
 Alpha  occ. eigenvalues --   -0.51985  -0.50093  -0.49515  -0.46869  -0.46195
 Alpha  occ. eigenvalues --   -0.45868  -0.44604  -0.43937  -0.41873  -0.40285
 Alpha  occ. eigenvalues --   -0.39561  -0.39228  -0.37009  -0.36709  -0.35923
 Alpha  occ. eigenvalues --   -0.33974  -0.32579  -0.32352  -0.30049  -0.26707
 Alpha  occ. eigenvalues --   -0.26463  -0.24609
 Alpha virt. eigenvalues --   -0.06449  -0.04915  -0.02518  -0.00679  -0.00136
 Alpha virt. eigenvalues --    0.00201   0.00716   0.01171   0.01264   0.02515
 Alpha virt. eigenvalues --    0.03541   0.04069   0.04182   0.05182   0.05384
 Alpha virt. eigenvalues --    0.06219   0.06837   0.07154   0.07760   0.08423
 Alpha virt. eigenvalues --    0.08704   0.08930   0.10060   0.10165   0.10513
 Alpha virt. eigenvalues --    0.11723   0.11735   0.11754   0.12450   0.12960
 Alpha virt. eigenvalues --    0.13413   0.13802   0.13880   0.14387   0.14804
 Alpha virt. eigenvalues --    0.15215   0.16012   0.16112   0.17278   0.17447
 Alpha virt. eigenvalues --    0.17476   0.18034   0.18181   0.18336   0.18827
 Alpha virt. eigenvalues --    0.19210   0.19482   0.20234   0.20503   0.20836
 Alpha virt. eigenvalues --    0.21581   0.22021   0.22196   0.22351   0.23020
 Alpha virt. eigenvalues --    0.23149   0.23703   0.24879   0.25287   0.25806
 Alpha virt. eigenvalues --    0.26069   0.26125   0.26798   0.28559   0.29346
 Alpha virt. eigenvalues --    0.29450   0.30713   0.30938   0.31759   0.32506
 Alpha virt. eigenvalues --    0.33981   0.34072   0.34758   0.35052   0.35586
 Alpha virt. eigenvalues --    0.37807   0.38208   0.42480   0.44304   0.45302
 Alpha virt. eigenvalues --    0.45633   0.46160   0.46175   0.46537   0.47437
 Alpha virt. eigenvalues --    0.49783   0.51670   0.52108   0.52583   0.53465
 Alpha virt. eigenvalues --    0.53952   0.54481   0.54647   0.54820   0.55024
 Alpha virt. eigenvalues --    0.56585   0.56634   0.57981   0.58655   0.60067
 Alpha virt. eigenvalues --    0.60316   0.60897   0.60996   0.62735   0.63135
 Alpha virt. eigenvalues --    0.65583   0.65842   0.65953   0.66902   0.67147
 Alpha virt. eigenvalues --    0.67737   0.69339   0.69435   0.70446   0.72079
 Alpha virt. eigenvalues --    0.73222   0.73896   0.76772   0.77638   0.81353
 Alpha virt. eigenvalues --    0.81598   0.82209   0.83014   0.83548   0.84227
 Alpha virt. eigenvalues --    0.84236   0.84626   0.84935   0.85640   0.86328
 Alpha virt. eigenvalues --    0.87511   0.87924   0.88087   0.89326   0.89835
 Alpha virt. eigenvalues --    0.90708   0.92505   0.93340   0.95050   0.95116
 Alpha virt. eigenvalues --    0.95438   0.96238   0.96566   0.97090   1.00143
 Alpha virt. eigenvalues --    1.00152   1.01714   1.02607   1.04982   1.05027
 Alpha virt. eigenvalues --    1.06102   1.07409   1.08093   1.09567   1.11262
 Alpha virt. eigenvalues --    1.11360   1.11451   1.18540   1.18755   1.20242
 Alpha virt. eigenvalues --    1.25668   1.27513   1.27649   1.28813   1.30124
 Alpha virt. eigenvalues --    1.33730   1.34725   1.44742   1.45754   1.47300
 Alpha virt. eigenvalues --    1.47920   1.48383   1.51172   1.54606   1.54860
 Alpha virt. eigenvalues --    1.54930   1.55264   1.55391   1.58533   1.61063
 Alpha virt. eigenvalues --    1.61290   1.61901   1.62173   1.66090   1.66104
 Alpha virt. eigenvalues --    1.68803   1.70775   1.73029   1.73892   1.75628
 Alpha virt. eigenvalues --    1.76128   1.81968   1.82413   1.83649   1.84047
 Alpha virt. eigenvalues --    1.88592   1.88779   1.90033   1.90433   1.92065
 Alpha virt. eigenvalues --    1.93313   1.94618   1.96257   1.97394   1.98108
 Alpha virt. eigenvalues --    1.98108   1.99471   1.99701   2.00008   2.03342
 Alpha virt. eigenvalues --    2.04929   2.05217   2.08825   2.12467   2.18580
 Alpha virt. eigenvalues --    2.20888   2.25133   2.26240   2.26871   2.28046
 Alpha virt. eigenvalues --    2.28337   2.33219   2.33898   2.34789   2.36426
 Alpha virt. eigenvalues --    2.39244   2.39925   2.43396   2.43551   2.46116
 Alpha virt. eigenvalues --    2.49392   2.52933   2.54745   2.54754   2.59417
 Alpha virt. eigenvalues --    2.62251   2.64368   2.64612   2.67295   2.68644
 Alpha virt. eigenvalues --    2.68847   2.69815   2.71051   2.73615   2.74038
 Alpha virt. eigenvalues --    2.74217   2.74665   2.75520   2.77864   2.79209
 Alpha virt. eigenvalues --    2.80727   2.81691   2.82642   2.83232   2.84163
 Alpha virt. eigenvalues --    2.85553   2.86383   2.92295   2.94110   2.96529
 Alpha virt. eigenvalues --    3.05788   3.06699   3.07959   3.12612   3.16233
 Alpha virt. eigenvalues --    3.18851   3.19253   3.23065   3.33196   3.33820
 Alpha virt. eigenvalues --    3.35162   3.39088   3.49837   3.52066   3.55658
 Alpha virt. eigenvalues --    3.59186   3.63181   3.69660   3.79072   3.80004
 Alpha virt. eigenvalues --    4.01548   4.03208   4.10255   4.12932   4.15970
 Alpha virt. eigenvalues --    4.21976   4.48681   4.80040   4.84269   9.77010
 Alpha virt. eigenvalues --    9.78379  23.49135  23.62807  23.87422  23.88033
 Alpha virt. eigenvalues --   23.92605  23.93899  24.02972  24.03605  24.05380
 Alpha virt. eigenvalues --   24.05485  24.14152  24.14384  25.81972  25.82412
 Alpha virt. eigenvalues --   26.12283  26.15265  26.59838  26.60246 215.76048
 Alpha virt. eigenvalues --  215.77572
          Condensed to atoms (all electrons):
               1          2          3          4          5          6
     1  C    8.773232   0.222101  -1.028143  -0.437588  -0.716397  -0.392091
     2  C    0.222101  18.165686  -2.842631  -2.753971   0.120903  -5.005617
     3  C   -1.028143  -2.842631  14.621426  -3.578635  -1.405358   1.064976
     4  C   -0.437588  -2.753971  -3.578635  11.945590   1.256922  -0.040517
     5  C   -0.716397   0.120903  -1.405358   1.256922   8.160746  -0.628091
     6  C   -0.392091  -5.005617   1.064976  -0.040517  -0.628091  12.396933
     7  C    2.220483  -1.274744  -0.385131  -0.350504  -0.427263  -0.527942
     8  C   -1.274744   4.989021  -1.422016   0.014568  -0.048248  -3.616974
     9  C   -0.385131  -1.422016   1.247323   0.026645  -0.141183  -0.210878
    10  C   -0.350504   0.014568   0.026645   0.068886  -0.098056   0.245784
    11  C   -0.427263  -0.048248  -0.141183  -0.098056   0.168297  -0.379152
    12  C   -0.527942  -3.616974  -0.210878   0.245784  -0.379152   3.115800
    13  H    0.020791   0.313489  -0.117410   0.052617  -0.003218  -0.004566
    14  H    0.046228   0.014002   0.022146   0.337741  -0.043039  -0.030011
    15  H    0.029306  -0.028904  -0.017431   0.008248   0.388088  -0.035316
    16  H    0.028686  -0.000238  -0.006151  -0.006102  -0.089555   0.335666
    17  H    0.048758   0.015122  -0.011144  -0.005804  -0.003480   0.033227
    18  H    0.004302   0.000740   0.000034  -0.000027   0.000332   0.001594
    19  H   -0.004387  -0.001981  -0.000027   0.000199   0.000288   0.011057
    20  H    0.032325   0.022088   0.004644  -0.001655   0.000396   0.003644
    21  Cl  -0.320770   0.251770  -0.645452  -0.150973   0.219063   0.078720
    22  Cl  -0.101078  -0.044377   0.016867  -0.005566   0.001228  -0.059340
               7          8          9         10         11         12
     1  C    2.220483  -1.274744  -0.385131  -0.350504  -0.427263  -0.527942
     2  C   -1.274744   4.989021  -1.422016   0.014568  -0.048248  -3.616974
     3  C   -0.385131  -1.422016   1.247323   0.026645  -0.141183  -0.210878
     4  C   -0.350504   0.014568   0.026645   0.068886  -0.098056   0.245784
     5  C   -0.427263  -0.048248  -0.141183  -0.098056   0.168297  -0.379152
     6  C   -0.527942  -3.616974  -0.210878   0.245784  -0.379152   3.115800
     7  C    8.773232   0.222101  -1.028143  -0.437588  -0.716397  -0.392091
     8  C    0.222101  18.165686  -2.842631  -2.753971   0.120903  -5.005617
     9  C   -1.028143  -2.842631  14.621426  -3.578635  -1.405358   1.064976
    10  C   -0.437588  -2.753971  -3.578635  11.945590   1.256922  -0.040517
    11  C   -0.716397   0.120903  -1.405358   1.256922   8.160746  -0.628090
    12  C   -0.392091  -5.005617   1.064976  -0.040517  -0.628090  12.396933
    13  H    0.048758   0.015122  -0.011144  -0.005804  -0.003480   0.033227
    14  H    0.004302   0.000740   0.000034  -0.000027   0.000332   0.001594
    15  H   -0.004387  -0.001981  -0.000027   0.000199   0.000288   0.011057
    16  H    0.032325   0.022088   0.004644  -0.001655   0.000396   0.003644
    17  H    0.020791   0.313489  -0.117410   0.052617  -0.003218  -0.004566
    18  H    0.046228   0.014002   0.022146   0.337741  -0.043039  -0.030011
    19  H    0.029306  -0.028904  -0.017431   0.008248   0.388088  -0.035316
    20  H    0.028686  -0.000238  -0.006151  -0.006102  -0.089555   0.335666
    21  Cl  -0.101078  -0.044377   0.016867  -0.005566   0.001228  -0.059340
    22  Cl  -0.320770   0.251770  -0.645452  -0.150973   0.219063   0.078720
              13         14         15         16         17         18
     1  C    0.020791   0.046228   0.029306   0.028686   0.048758   0.004302
     2  C    0.313489   0.014002  -0.028904  -0.000238   0.015122   0.000740
     3  C   -0.117410   0.022146  -0.017431  -0.006151  -0.011144   0.000034
     4  C    0.052617   0.337741   0.008248  -0.006102  -0.005804  -0.000027
     5  C   -0.003218  -0.043039   0.388088  -0.089555  -0.003480   0.000332
     6  C   -0.004566  -0.030011  -0.035316   0.335666   0.033227   0.001594
     7  C    0.048758   0.004302  -0.004387   0.032325   0.020791   0.046228
     8  C    0.015122   0.000740  -0.001981   0.022088   0.313489   0.014002
     9  C   -0.011144   0.000034  -0.000027   0.004644  -0.117410   0.022146
    10  C   -0.005804  -0.000027   0.000199  -0.001655   0.052617   0.337741
    11  C   -0.003480   0.000332   0.000288   0.000396  -0.003218  -0.043039
    12  C    0.033227   0.001594   0.011057   0.003644  -0.004566  -0.030011
    13  H    0.533688  -0.000324   0.000076  -0.000022   0.005415  -0.000001
    14  H   -0.000324   0.512976  -0.007363  -0.000239  -0.000001  -0.000000
    15  H    0.000076  -0.007363   0.531086  -0.007047   0.000001  -0.000000
    16  H   -0.000022  -0.000239  -0.007047   0.558860  -0.000111  -0.000001
    17  H    0.005415  -0.000001   0.000001  -0.000111   0.533688  -0.000324
    18  H   -0.000001  -0.000000  -0.000000  -0.000001  -0.000324   0.512976
    19  H    0.000001  -0.000000   0.000000  -0.000005   0.000076  -0.007363
    20  H   -0.000111  -0.000001  -0.000005   0.002127  -0.000022  -0.000239
    21  Cl  -0.019496  -0.005289   0.000076   0.000089   0.000137   0.000001
    22  Cl   0.000137   0.000001  -0.000001   0.000055  -0.019496  -0.005289
              19         20         21         22
     1  C   -0.004387   0.032325  -0.320770  -0.101078
     2  C   -0.001981   0.022088   0.251770  -0.044377
     3  C   -0.000027   0.004644  -0.645452   0.016867
     4  C    0.000199  -0.001655  -0.150973  -0.005566
     5  C    0.000288   0.000396   0.219063   0.001228
     6  C    0.011057   0.003644   0.078720  -0.059340
     7  C    0.029306   0.028686  -0.101078  -0.320770
     8  C   -0.028904  -0.000238  -0.044377   0.251770
     9  C   -0.017431  -0.006151   0.016867  -0.645452
    10  C    0.008248  -0.006102  -0.005566  -0.150973
    11  C    0.388088  -0.089555   0.001228   0.219063
    12  C   -0.035316   0.335666  -0.059340   0.078720
    13  H    0.000001  -0.000111  -0.019496   0.000137
    14  H   -0.000000  -0.000001  -0.005289   0.000001
    15  H    0.000000  -0.000005   0.000076  -0.000001
    16  H   -0.000005   0.002127   0.000089   0.000055
    17  H    0.000076  -0.000022   0.000137  -0.019496
    18  H   -0.007363  -0.000239   0.000001  -0.005289
    19  H    0.531086  -0.007047  -0.000001   0.000076
    20  H   -0.007047   0.558860   0.000055   0.000089
    21  Cl  -0.000001   0.000055  17.369528  -0.000522
    22  Cl   0.000076   0.000089  -0.000522  17.369528
 Mulliken charges:
               1
     1  C    0.539828
     2  C   -1.089791
     3  C    0.807529
     4  C   -0.527803
     5  C   -0.333225
     6  C   -0.356904
     7  C    0.539828
     8  C   -1.089791
     9  C    0.807529
    10  C   -0.527803
    11  C   -0.333225
    12  C   -0.356904
    13  H    0.142256
    14  H    0.146197
    15  H    0.134037
    16  H    0.122547
    17  H    0.142256
    18  H    0.146197
    19  H    0.134037
    20  H    0.122547
    21  Cl   0.415331
    22  Cl   0.415331
 Sum of Mulliken charges =  -0.00000
 Mulliken charges with hydrogens summed into heavy atoms:
               1
     1  C    0.539828
     2  C   -0.947535
     3  C    0.807529
     4  C   -0.381606
     5  C   -0.199189
     6  C   -0.234358
     7  C    0.539828
     8  C   -0.947535
     9  C    0.807529
    10  C   -0.381606
    11  C   -0.199189
    12  C   -0.234358
    21  Cl   0.415331
    22  Cl   0.415331
 Electronic spatial extent (au):  <R**2>=           4647.9749
 Charge=             -0.0000 electrons
 Dipole moment (field-independent basis, Debye):
    X=             -0.0000    Y=              3.0578    Z=              0.0000  Tot=              3.0578
 Quadrupole moment (field-independent basis, Debye-Ang):
   XX=            -93.9391   YY=            -88.4106   ZZ=           -101.1880
   XY=              0.0000   XZ=             -0.0000   YZ=              0.0000
 Traceless Quadrupole moment (field-independent basis, Debye-Ang):
   XX=              0.5734   YY=              6.1020   ZZ=             -6.6754
   XY=              0.0000   XZ=             -0.0000   YZ=              0.0000
 Octapole moment (field-independent basis, Debye-Ang**2):
  XXX=             -0.0000  YYY=              8.3669  ZZZ=              0.0000  XYY=             -0.0000
  XXY=             39.6614  XXZ=              0.0001  XZZ=             -0.0000  YZZ=            -11.6715
  YYZ=              0.0000  XYZ=             -0.0001
 Hexadecapole moment (field-independent basis, Debye-Ang**3):
 XXXX=          -4556.1751 YYYY=          -1346.4895 ZZZZ=           -120.0125 XXXY=              0.0000
 XXXZ=             -0.0005 YYYX=             -0.0000 YYYZ=              0.0001 ZZZX=              0.0001
 ZZZY=              0.0000 XXYY=           -979.3655 XXZZ=           -856.4731 YYZZ=           -282.0055
 XXYZ=              0.0002 YYXZ=             -0.0002 ZZXY=             -0.0000
 N-N= 9.398948993395D+02 E-N=-5.139024859068D+03  KE= 1.378278671840D+03
 Calling FoFJK, ICntrl=      2127 FMM=F ISym2X=0 I1Cent= 0 IOpClX= 0 NMat=1 NMatS=1 NMatT=0.
 ***** Axes restored to original set *****
 -------------------------------------------------------------------
 Center     Atomic                   Forces (Hartrees/Bohr)
 Number     Number              X              Y              Z
 -------------------------------------------------------------------
      1        6          -0.015377310   -0.015790974   -0.012607251
      2        6           0.001552554    0.012348400    0.010033003
      3        6          -0.015056025   -0.000136486    0.000139432
      4        6          -0.004275175   -0.005775125   -0.004633432
      5        6           0.006086826   -0.016257600   -0.013344210
      6        6           0.018296734    0.003970125    0.002929642
      7        6           0.014503039    0.016277351    0.013018033
      8        6          -0.014662989   -0.005054598   -0.003873305
      9        6          -0.004608197    0.011076542    0.009099273
     10        6           0.005732021    0.004964735    0.003948838
     11        6           0.021883811    0.000696169    0.000203161
     12        6           0.000930911   -0.014667307   -0.011963222
     13        1           0.006180065   -0.003244050   -0.002745392
     14        1           0.006036890    0.005391151    0.004291083
     15        1          -0.002929946    0.006924003    0.005688915
     16        1          -0.006198895    0.002909750    0.002473259
     17        1           0.005941756   -0.003499764   -0.002949814
     18        1          -0.004701803   -0.006133904   -0.004918358
     19        1          -0.009427310   -0.000049097    0.000116766
     20        1          -0.005537358    0.003619689    0.003040635
     21       17          -0.003168725    0.000159527    0.000182657
     22       17          -0.001200875    0.002271464    0.001870288
 -------------------------------------------------------------------
 Cartesian Forces:  Max     0.021883811 RMS     0.008404278

 GradGradGradGradGradGradGradGradGradGradGradGradGradGradGradGradGradGrad
 Berny optimization.
 FormGI is forming the generalized inverse of G from B-inverse, IUseBI=4.
 Internal  Forces:  Max     0.015043037 RMS     0.004525416
 Search for a local minimum.
 Step number   1 out of a maximum of  121
 All quantities printed in internal units (Hartrees-Bohrs-Radians)
 Mixed Optimization -- RFO/linear search
 Second derivative matrix not updated -- first step.
 ITU=  0
     Eigenvalues ---    0.00237   0.01506   0.01506   0.02070   0.02070
     Eigenvalues ---    0.02070   0.02070   0.02070   0.02070   0.02070
     Eigenvalues ---    0.02070   0.02070   0.02070   0.02070   0.02070
     Eigenvalues ---    0.02070   0.02070   0.02070   0.02070   0.16000
     Eigenvalues ---    0.16000   0.16000   0.16000   0.16000   0.16000
     Eigenvalues ---    0.16000   0.16000   0.22000   0.22000   0.23478
     Eigenvalues ---    0.23478   0.23493   0.23493   0.25000   0.25000
     Eigenvalues ---    0.25000   0.25000   0.28519   0.29539   0.29539
     Eigenvalues ---    0.37230   0.37230   0.37230   0.37230   0.37230
     Eigenvalues ---    0.37230   0.37230   0.37230   0.41364   0.41364
     Eigenvalues ---    0.41554   0.41554   0.45389   0.45389   0.45389
     Eigenvalues ---    0.45389   0.45389   0.45389   0.45389   0.45389
 RFO step:  Lambda=-7.07913653D-03 EMin= 2.36824182D-03
 Linear search not attempted -- first point.
 Iteration  1 RMS(Cart)=  0.02134076 RMS(Int)=  0.00027431
 Iteration  2 RMS(Cart)=  0.00034935 RMS(Int)=  0.00001774
 Iteration  3 RMS(Cart)=  0.00000007 RMS(Int)=  0.00001774
 Variable       Old X    -DE/DX   Delta X   Delta X   Delta X     New X
                                 (Linear)    (Quad)   (Total)
    R1        2.64826  -0.00013   0.00000   0.00037   0.00040   2.64867
    R2        2.64826   0.00072   0.00000   0.00221   0.00222   2.65049
    R3        2.91018  -0.01504   0.00000  -0.05147  -0.05147   2.85871
    R4        2.64826  -0.01013   0.00000  -0.02196  -0.02194   2.62632
    R5        2.02201   0.00639   0.00000   0.01685   0.01685   2.03886
    R6        2.64826  -0.01113   0.00000  -0.02481  -0.02482   2.62344
    R7        3.32592  -0.00318   0.00000  -0.01050  -0.01050   3.31542
    R8        2.64826  -0.00975   0.00000  -0.02181  -0.02184   2.62642
    R9        2.02201   0.00912   0.00000   0.02405   0.02405   2.04606
   R10        2.64826  -0.00770   0.00000  -0.01671  -0.01673   2.63153
   R11        2.02201   0.00938   0.00000   0.02472   0.02472   2.04673
   R12        2.02201   0.00657   0.00000   0.01731   0.01731   2.03932
   R13        2.64826  -0.00013   0.00000   0.00037   0.00040   2.64867
   R14        2.64826   0.00072   0.00000   0.00221   0.00222   2.65049
   R15        2.64826  -0.01013   0.00000  -0.02196  -0.02194   2.62632
   R16        2.02201   0.00639   0.00000   0.01685   0.01685   2.03886
   R17        2.64826  -0.01113   0.00000  -0.02481  -0.02482   2.62344
   R18        3.32592  -0.00318   0.00000  -0.01050  -0.01050   3.31542
   R19        2.64826  -0.00975   0.00000  -0.02181  -0.02184   2.62642
   R20        2.02201   0.00912   0.00000   0.02405   0.02405   2.04606
   R21        2.64826  -0.00770   0.00000  -0.01671  -0.01673   2.63153
   R22        2.02201   0.00938   0.00000   0.02472   0.02472   2.04673
   R23        2.02201   0.00657   0.00000   0.01731   0.01731   2.03932
    A1        2.09440  -0.01004   0.00000  -0.03683  -0.03679   2.05761
    A2        2.09440   0.00367   0.00000   0.01318   0.01316   2.10755
    A3        2.09440   0.00637   0.00000   0.02365   0.02363   2.11803
    A4        2.09440   0.00150   0.00000   0.00774   0.00779   2.10218
    A5        2.09440   0.00322   0.00000   0.01988   0.01985   2.11425
    A6        2.09440  -0.00472   0.00000  -0.02761  -0.02764   2.06676
    A7        2.09440   0.00715   0.00000   0.02643   0.02643   2.12083
    A8        2.09440  -0.00374   0.00000  -0.01384  -0.01384   2.08055
    A9        2.09440  -0.00342   0.00000  -0.01259  -0.01259   2.08180
   A10        2.09440  -0.00572   0.00000  -0.02814  -0.02819   2.06621
   A11        2.09440   0.00202   0.00000   0.00907   0.00910   2.10349
   A12        2.09440   0.00369   0.00000   0.01907   0.01909   2.11349
   A13        2.09440   0.00342   0.00000   0.01346   0.01341   2.10781
   A14        2.09440  -0.00268   0.00000  -0.01254  -0.01251   2.08189
   A15        2.09440  -0.00074   0.00000  -0.00093  -0.00090   2.09349
   A16        2.09440   0.00368   0.00000   0.01735   0.01734   2.11174
   A17        2.09440   0.00134   0.00000   0.01034   0.01035   2.10474
   A18        2.09440  -0.00502   0.00000  -0.02769  -0.02769   2.06671
   A19        2.09440   0.00367   0.00000   0.01318   0.01316   2.10755
   A20        2.09440   0.00637   0.00000   0.02365   0.02363   2.11803
   A21        2.09440  -0.01004   0.00000  -0.03683  -0.03679   2.05761
   A22        2.09440   0.00150   0.00000   0.00774   0.00779   2.10218
   A23        2.09440   0.00322   0.00000   0.01988   0.01985   2.11425
   A24        2.09440  -0.00472   0.00000  -0.02761  -0.02764   2.06676
   A25        2.09440   0.00715   0.00000   0.02643   0.02643   2.12083
   A26        2.09440  -0.00374   0.00000  -0.01384  -0.01384   2.08055
   A27        2.09440  -0.00342   0.00000  -0.01259  -0.01259   2.08180
   A28        2.09440  -0.00572   0.00000  -0.02814  -0.02819   2.06621
   A29        2.09440   0.00202   0.00000   0.00907   0.00910   2.10349
   A30        2.09440   0.00369   0.00000   0.01907   0.01909   2.11349
   A31        2.09440   0.00342   0.00000   0.01346   0.01341   2.10781
   A32        2.09440  -0.00268   0.00000  -0.01254  -0.01251   2.08189
   A33        2.09440  -0.00074   0.00000  -0.00093  -0.00090   2.09349
   A34        2.09440   0.00368   0.00000   0.01735   0.01734   2.11174
   A35        2.09440   0.00134   0.00000   0.01034   0.01035   2.10474
   A36        2.09440  -0.00502   0.00000  -0.02769  -0.02769   2.06671
    D1        0.00000  -0.00000   0.00000  -0.00000  -0.00000   0.00000
    D2        3.14159   0.00000   0.00000   0.00000   0.00000   3.14159
    D3       -3.14159  -0.00000   0.00000  -0.00000  -0.00000  -3.14159
    D4       -0.00000   0.00000   0.00000   0.00000   0.00000  -0.00000
    D5       -0.00000   0.00000   0.00000   0.00000   0.00000  -0.00000
    D6        3.14159   0.00000   0.00000   0.00000   0.00000   3.14159
    D7        3.14159   0.00000   0.00000   0.00000   0.00000   3.14159
    D8        0.00000  -0.00000   0.00000  -0.00000  -0.00000  -0.00000
    D9       -0.00000  -0.00000   0.00000  -0.00000  -0.00000  -0.00001
   D10        3.14159  -0.00000   0.00000  -0.00000  -0.00000   3.14159
   D11        3.14159  -0.00000   0.00000  -0.00000  -0.00000   3.14159
   D12       -0.00000  -0.00000   0.00000  -0.00000  -0.00000  -0.00001
   D13        0.00000  -0.00000   0.00000  -0.00000  -0.00000  -0.00000
   D14        3.14159   0.00000   0.00000   0.00000   0.00000  -3.14159
   D15       -3.14159  -0.00000   0.00000  -0.00000  -0.00000  -3.14159
   D16        0.00000  -0.00000   0.00000  -0.00000  -0.00000   0.00000
   D17       -0.00000   0.00000   0.00000   0.00000   0.00000  -0.00000
   D18        3.14159   0.00000   0.00000   0.00000   0.00000   3.14159
   D19        3.14159   0.00000   0.00000   0.00000   0.00000   3.14159
   D20        0.00000  -0.00000   0.00000  -0.00000  -0.00000  -0.00000
   D21        0.00000  -0.00000   0.00000  -0.00000  -0.00000   0.00000
   D22       -3.14159  -0.00000   0.00000  -0.00000  -0.00000  -3.14159
   D23       -3.14159  -0.00000   0.00000  -0.00000  -0.00000  -3.14159
   D24        0.00000  -0.00000   0.00000  -0.00000  -0.00000   0.00000
   D25       -0.00000   0.00000   0.00000   0.00000   0.00000   0.00000
   D26        3.14159   0.00000   0.00000   0.00000   0.00000  -3.14159
   D27        3.14159   0.00000   0.00000   0.00000   0.00000   3.14159
   D28       -0.00000   0.00000   0.00000   0.00000   0.00000  -0.00000
   D29        3.14159   0.00000   0.00000   0.00000   0.00000  -3.14159
   D30        0.00000  -0.00000   0.00000  -0.00000  -0.00000   0.00000
   D31        0.00000  -0.00000   0.00000  -0.00000  -0.00000   0.00000
   D32       -3.14159  -0.00000   0.00000  -0.00000  -0.00000  -3.14159
   D33       -3.14159  -0.00000   0.00000  -0.00000  -0.00000   3.14159
   D34        0.00000  -0.00000   0.00000  -0.00000  -0.00000  -0.00000
   D35       -0.00000   0.00000   0.00000   0.00000   0.00000   0.00000
   D36        3.14159   0.00000   0.00000   0.00000   0.00000   3.14159
   D37       -0.00000  -0.00000   0.00000   0.00000   0.00000  -0.00000
   D38        3.14159  -0.00000   0.00000  -0.00000  -0.00000   3.14159
   D39        3.14159   0.00000   0.00000   0.00000   0.00000   3.14159
   D40       -0.00000   0.00000   0.00000   0.00000   0.00000  -0.00000
   D41       -0.00000   0.00000   0.00000   0.00000   0.00000   0.00000
   D42       -3.14159  -0.00000   0.00000  -0.00000  -0.00000  -3.14159
   D43        3.14159   0.00000   0.00000   0.00000   0.00000  -3.14159
   D44        0.00000  -0.00000   0.00000  -0.00000  -0.00000   0.00000
   D45        0.00000   0.00000   0.00000   0.00000   0.00000   0.00000
   D46       -3.14159  -0.00000   0.00000  -0.00000  -0.00000  -3.14159
   D47        3.14159   0.00000   0.00000   0.00000   0.00000   3.14159
   D48        0.00000  -0.00000   0.00000  -0.00000  -0.00000   0.00000
   D49        0.00000  -0.00000   0.00000  -0.00000  -0.00000  -0.00000
   D50       -3.14159  -0.00000   0.00000  -0.00000  -0.00000  -3.14159
   D51        3.14159   0.00000   0.00000   0.00000   0.00000   3.14159
   D52       -0.00000   0.00000   0.00000   0.00000   0.00000  -0.00000
         Item               Value     Threshold  Converged?
 Maximum Force            0.015043     0.000450     NO 
 RMS     Force            0.004525     0.000300     NO 
 Maximum Displacement     0.070482     0.001800     NO 
 RMS     Displacement     0.021418     0.001200     NO 
 Predicted change in Energy=-3.625443D-03
 GradGradGradGradGradGradGradGradGradGradGradGradGradGradGradGradGradGrad

                          Input orientation:                          
 ---------------------------------------------------------------------
 Center     Atomic      Atomic             Coordinates (Angstroms)
 Number     Number       Type             X           Y           Z
 ---------------------------------------------------------------------
      1          6           0       -3.459390   -2.798628   -0.142612
      2          6           0       -2.063887   -2.887663   -0.238350
      3          6           0       -1.252023   -2.006518    0.465902
      4          6           0       -1.788569   -1.018180    1.279898
      5          6           0       -3.171552   -0.923412    1.380098
      6          6           0       -3.998147   -1.799000    0.680618
      7          6           0       -4.349669   -3.754103   -0.906107
      8          6           0       -3.797757   -4.748502   -1.725305
      9          6           0       -4.621683   -5.622936   -2.423890
     10          6           0       -6.004867   -5.543241   -2.335957
     11          6           0       -6.559844   -4.559835   -1.525663
     12          6           0       -5.747411   -3.676368   -0.819529
     13          1           0       -1.593734   -3.636731   -0.856341
     14          1           0       -1.140942   -0.340198    1.821391
     15          1           0       -3.605756   -0.157652    2.011086
     16          1           0       -5.066712   -1.691231    0.786177
     17          1           0       -2.729289   -4.855437   -1.830190
     18          1           0       -6.631542   -6.232879   -2.887294
     19          1           0       -7.637394   -4.484538   -1.446397
     20          1           0       -6.218614   -2.927495   -0.201673
     21         17           0        0.490856   -2.147262    0.322264
     22         17           0       -3.896123   -6.855494   -3.439977
 ---------------------------------------------------------------------
                    Distance matrix (angstroms):
                    1          2          3          4          5
     1  C    0.000000
     2  C    1.401614   0.000000
     3  C    2.422848   1.389788   0.000000
     4  C    2.825804   2.424014   1.388266   0.000000
     5  C    2.432680   2.775712   2.386098   1.389842   0.000000
     6  C    1.402577   2.402302   2.762311   2.418894   1.392546
     7  C    1.512763   2.534051   3.812069   4.338562   3.824591
     8  C    2.534051   2.946194   4.335968   5.194552   4.966585
     9  C    3.812069   4.335968   5.725730   6.553499   6.217614
    10  C    4.338562   5.194552   6.553499   7.164339   6.571115
    11  C    3.824591   4.966585   6.217614   6.571115   5.757390
    12  C    2.542379   3.811585   4.964801   5.210181   4.364880
    13  H    2.166217   1.078916   2.126661   3.385009   3.853994
    14  H    3.908502   3.403519   2.150886   1.082726   2.158299
    15  H    3.410952   3.858793   3.368376   2.139466   1.083083
    16  H    2.161588   3.390880   3.841072   3.382747   2.129300
    17  H    2.758882   2.617030   3.945972   5.028135   5.095327
    18  H    5.421247   6.250668   7.618745   8.246997   7.640197
    19  H    4.690189   5.922278   7.111290   7.325099   6.372946
    20  H    2.762863   4.155080   5.095182   5.046368   3.975291
    21  Cl   4.030487   2.718307   1.754443   2.718027   4.003755
    22  Cl   5.246095   5.417673   6.764593   7.797001   7.677742
                    6          7          8          9         10
     6  C    0.000000
     7  C    2.542379   0.000000
     8  C    3.811585   1.401614   0.000000
     9  C    4.964801   2.422848   1.389788   0.000000
    10  C    5.210181   2.825804   2.424014   1.388266   0.000000
    11  C    4.364880   2.432680   2.775712   2.386098   1.389842
    12  C    2.972353   1.402577   2.402302   2.762311   2.418894
    13  H    3.394216   2.758882   2.617030   3.945972   5.028135
    14  H    3.404862   5.421247   6.250668   7.618745   8.246997
    15  H    2.148985   4.690189   5.922278   7.111290   7.325099
    16  H    1.079161   2.762863   4.155080   5.095182   5.046368
    17  H    4.154030   2.166217   1.078916   2.126661   3.385009
    18  H    6.270889   3.908502   3.403519   2.150886   1.082726
    19  H    4.998043   3.410952   3.858793   3.368376   2.139466
    20  H    2.642426   2.161588   3.390880   3.841072   3.382747
    21  Cl   4.516730   5.246095   5.417673   6.764593   7.797001
    22  Cl   6.523637   4.030487   2.718307   1.754443   2.718027
                   11         12         13         14         15
    11  C    0.000000
    12  C    1.392546   0.000000
    13  H    5.095327   4.154030   0.000000
    14  H    7.640197   6.270889   4.271112   0.000000
    15  H    6.372946   4.998043   4.937040   2.478834   0.000000
    16  H    3.975291   2.642426   4.306322   4.278858   2.446765
    17  H    3.853994   3.394216   1.929537   6.020321   6.131295
    18  H    2.158299   3.404862   6.020321   9.329636   8.370059
    19  H    1.083083   2.148985   6.131295   8.370059   6.850565
    20  H    2.129300   1.079161   4.724523   6.047285   4.404016
    21  Cl   7.677742   6.523637   2.820132   2.859305   4.857253
    22  Cl   4.003755   4.516730   4.726162   8.816013   8.640572
                   16         17         18         19         20
    16  H    0.000000
    17  H    4.724523   0.000000
    18  H    6.047285   4.271112   0.000000
    19  H    4.404016   4.937040   2.478834   0.000000
    20  H    1.957313   4.306322   4.278858   2.446765   0.000000
    21  Cl   5.595511   4.726162   8.816013   8.640572   6.774973
    22  Cl   6.774973   2.820132   2.859305   4.857253   5.595511
                   21         22
    21  Cl   0.000000
    22  Cl   7.454360   0.000000
 Stoichiometry    C12H8Cl2
 Framework group  C1[X(C12H8Cl2)]
 Deg. of freedom    60
 Full point group                 C1      NOp   1
 Largest Abelian subgroup         C1      NOp   1
 Largest concise Abelian subgroup C1      NOp   1
                         Standard orientation:                         
 ---------------------------------------------------------------------
 Center     Atomic      Atomic             Coordinates (Angstroms)
 Number     Number       Type             X           Y           Z
 ---------------------------------------------------------------------
      1          6           0        0.756382    0.778181   -0.000001
      2          6           0        1.473097   -0.426328    0.000002
      3          6           0        2.862865   -0.418867    0.000001
      4          6           0        3.582169    0.768519   -0.000003
      5          6           0        2.878695    1.967178   -0.000006
      6          6           0        1.486176    1.975938   -0.000005
      7          6           0       -0.756382    0.778181    0.000001
      8          6           0       -1.473097   -0.426328   -0.000001
      9          6           0       -2.862865   -0.418867   -0.000000
     10          6           0       -3.582169    0.768519    0.000003
     11          6           0       -2.878695    1.967178    0.000006
     12          6           0       -1.486176    1.975938    0.000005
     13          1           0        0.964768   -1.377990    0.000005
     14          1           0        4.664818    0.755559   -0.000004
     15          1           0        3.425282    2.902224   -0.000010
     16          1           0        0.978657    2.928310   -0.000007
     17          1           0       -0.964768   -1.377990   -0.000004
     18          1           0       -4.664818    0.755559    0.000004
     19          1           0       -3.425282    2.902224    0.000009
     20          1           0       -0.978657    2.928310    0.000007
     21         17           0        3.727180   -1.945637    0.000004
     22         17           0       -3.727180   -1.945637   -0.000004
 ---------------------------------------------------------------------
 Rotational constants (GHZ):           0.9590578           0.2709431           0.2112601
 Standard basis: 6-311+G(d,p) (5D, 7F)
 There are   386 symmetry adapted cartesian basis functions of A   symmetry.
 There are   372 symmetry adapted basis functions of A   symmetry.
   372 basis functions,   602 primitive gaussians,   386 cartesian basis functions
    57 alpha electrons       57 beta electrons
       nuclear repulsion energy       943.7564582928 Hartrees.
 NAtoms=   22 NActive=   22 NUniq=   22 SFac= 1.00D+00 NAtFMM=   60 NAOKFM=F Big=F
 Integral buffers will be    131072 words long.
 Raffenetti 2 integral format.
 Two-electron integral symmetry is turned on.
 One-electron integrals computed using PRISM.
 NBasis=   372 RedAO= T EigKep=  1.21D-06  NBF=   372
 NBsUse=   368 1.00D-06 EigRej=  7.68D-07 NBFU=   368
 Initial guess from the checkpoint file:  "/scratch/pkc/Gau-3013.chk"
 B after Tr=     0.000000   -0.000000    0.000000
         Rot=    1.000000   -0.000000    0.000000   -0.000000 Ang=   0.00 deg.
 ExpMin= 4.38D-02 ExpMax= 1.06D+05 ExpMxC= 3.62D+03 IAcc=3 IRadAn=         5 AccDes= 0.00D+00
 Harris functional with IExCor=  402 and IRadAn=       5 diagonalized for initial guess.
 HarFok:  IExCor=  402 AccDes= 0.00D+00 IRadAn=         5 IDoV= 1 UseB2=F ITyADJ=14
 ICtDFT=  3500011 ScaDFX=  1.000000  1.000000  1.000000  1.000000
 FoFCou: FMM=F IPFlag=           0 FMFlag=      100000 FMFlg1=           0
         NFxFlg=           0 DoJE=T BraDBF=F KetDBF=T FulRan=T
         wScrn=  0.000000 ICntrl=       500 IOpCl=  0 I1Cent=   200000004 NGrid=           0
         NMat0=    1 NMatS0=      1 NMatT0=    0 NMatD0=    1 NMtDS0=    0 NMtDT0=    0
 Petite list used in FoFCou.
 Requested convergence on RMS density matrix=1.00D-08 within  32 cycles.
 Requested convergence on MAX density matrix=1.00D-06.
 Requested convergence on             energy=1.00D-06.
 No special actions if energy rises.
 SCF Done:  E(RB3LYP) =  -1382.66440061     A.U. after   12 cycles
            NFock= 12  Conv=0.58D-08     -V/T= 2.0031
 QCSCF skips out because SCF is already converged.
 Calling FoFJK, ICntrl=      2127 FMM=F ISym2X=0 I1Cent= 0 IOpClX= 0 NMat=1 NMatS=1 NMatT=0.
 ***** Axes restored to original set *****
 -------------------------------------------------------------------
 Center     Atomic                   Forces (Hartrees/Bohr)
 Number     Number              X              Y              Z
 -------------------------------------------------------------------
      1        6          -0.007162443   -0.006739122   -0.005370356
      2        6           0.001115614    0.001175345    0.000938890
      3        6          -0.002395635   -0.001202819   -0.000939954
      4        6           0.001903255    0.002129245    0.001702765
      5        6          -0.001840808   -0.001505158   -0.001195473
      6        6           0.002164345    0.001205801    0.000946221
      7        6           0.005999156    0.007386327    0.005916874
      8        6          -0.001088682   -0.001190364   -0.000951500
      9        6           0.000716377    0.002137077    0.001728889
     10        6          -0.002009555   -0.002070110   -0.001652815
     11        6           0.001263435    0.001826381    0.001466728
     12        6          -0.000793396   -0.001968531   -0.001590311
     13        1           0.001059958   -0.000142548   -0.000133733
     14        1           0.000056632   -0.000302555   -0.000247400
     15        1          -0.000706066    0.000217012    0.000188539
     16        1          -0.001153945    0.000310970    0.000272482
     17        1           0.000511149   -0.000731505   -0.000604436
     18        1           0.000389295    0.000054474    0.000037884
     19        1          -0.000490311    0.000448587    0.000373544
     20        1          -0.000747663    0.000746977    0.000620937
     21       17           0.002051650   -0.000413006   -0.000370538
     22       17           0.001157640   -0.001372479   -0.001137238
 -------------------------------------------------------------------
 Cartesian Forces:  Max     0.007386327 RMS     0.002271196

 GradGradGradGradGradGradGradGradGradGradGradGradGradGradGradGradGradGrad
 Berny optimization.
 Using GEDIIS/GDIIS optimizer.
 FormGI is forming the generalized inverse of G from B-inverse, IUseBI=4.
 Internal  Forces:  Max     0.008338734 RMS     0.001073172
 Search for a local minimum.
 Step number   2 out of a maximum of  121
 All quantities printed in internal units (Hartrees-Bohrs-Radians)
 Mixed Optimization -- RFO/linear search
 Update second derivatives using D2CorX and points    1    2
 DE= -3.96D-03 DEPred=-3.63D-03 R= 1.09D+00
 TightC=F SS=  1.41D+00  RLast= 1.56D-01 DXNew= 5.0454D-01 4.6810D-01
 Trust test= 1.09D+00 RLast= 1.56D-01 DXMaxT set to 4.68D-01
 ITU=  1  0
 Use linear search instead of GDIIS.
     Eigenvalues ---    0.00237   0.01484   0.01484   0.02070   0.02070
     Eigenvalues ---    0.02070   0.02070   0.02070   0.02070   0.02070
     Eigenvalues ---    0.02070   0.02070   0.02070   0.02070   0.02070
     Eigenvalues ---    0.02070   0.02070   0.02070   0.02070   0.15302
     Eigenvalues ---    0.16000   0.16000   0.16000   0.16000   0.16000
     Eigenvalues ---    0.16000   0.16129   0.20418   0.22000   0.22194
     Eigenvalues ---    0.23468   0.23498   0.23504   0.24995   0.25000
     Eigenvalues ---    0.25000   0.25219   0.26941   0.29539   0.29960
     Eigenvalues ---    0.36974   0.37230   0.37230   0.37230   0.37230
     Eigenvalues ---    0.37230   0.37230   0.37795   0.41233   0.41247
     Eigenvalues ---    0.41599   0.42119   0.44886   0.45389   0.45389
     Eigenvalues ---    0.45389   0.45389   0.45389   0.45389   0.49846
 RFO step:  Lambda=-4.36657602D-04 EMin= 2.36824182D-03
 Quartic linear search produced a step of  0.12831.
 Iteration  1 RMS(Cart)=  0.00934639 RMS(Int)=  0.00003515
 Iteration  2 RMS(Cart)=  0.00004528 RMS(Int)=  0.00000231
 Iteration  3 RMS(Cart)=  0.00000000 RMS(Int)=  0.00000231
 Variable       Old X    -DE/DX   Delta X   Delta X   Delta X     New X
                                 (Linear)    (Quad)   (Total)
    R1        2.64867   0.00186   0.00005   0.00455   0.00460   2.65327
    R2        2.65049   0.00087   0.00029   0.00185   0.00214   2.65263
    R3        2.85871  -0.00834  -0.00660  -0.02922  -0.03582   2.82288
    R4        2.62632  -0.00055  -0.00282   0.00029  -0.00252   2.62379
    R5        2.03886   0.00064   0.00216   0.00073   0.00289   2.04175
    R6        2.62344   0.00141  -0.00318   0.00539   0.00221   2.62565
    R7        3.31542   0.00210  -0.00135   0.00877   0.00742   3.32284
    R8        2.62642   0.00177  -0.00280   0.00596   0.00316   2.62958
    R9        2.04606  -0.00028   0.00309  -0.00255   0.00053   2.04659
   R10        2.63153  -0.00112  -0.00215  -0.00170  -0.00385   2.62768
   R11        2.04673   0.00055   0.00317  -0.00010   0.00307   2.04980
   R12        2.03932   0.00120   0.00222   0.00240   0.00462   2.04394
   R13        2.64867   0.00186   0.00005   0.00455   0.00460   2.65327
   R14        2.65049   0.00087   0.00029   0.00185   0.00214   2.65263
   R15        2.62632  -0.00055  -0.00282   0.00029  -0.00252   2.62379
   R16        2.03886   0.00064   0.00216   0.00073   0.00289   2.04175
   R17        2.62344   0.00141  -0.00318   0.00539   0.00221   2.62565
   R18        3.31542   0.00210  -0.00135   0.00877   0.00742   3.32284
   R19        2.62642   0.00177  -0.00280   0.00596   0.00316   2.62958
   R20        2.04606  -0.00028   0.00309  -0.00255   0.00053   2.04659
   R21        2.63153  -0.00112  -0.00215  -0.00170  -0.00385   2.62768
   R22        2.04673   0.00055   0.00317  -0.00010   0.00307   2.04980
   R23        2.03932   0.00120   0.00222   0.00240   0.00462   2.04394
    A1        2.05761  -0.00120  -0.00472  -0.00315  -0.00786   2.04974
    A2        2.10755   0.00155   0.00169   0.00625   0.00793   2.11548
    A3        2.11803  -0.00035   0.00303  -0.00310  -0.00007   2.11796
    A4        2.10218   0.00049   0.00100   0.00195   0.00296   2.10514
    A5        2.11425   0.00064   0.00255   0.00344   0.00599   2.12023
    A6        2.06676  -0.00113  -0.00355  -0.00540  -0.00895   2.05781
    A7        2.12083   0.00054   0.00339   0.00090   0.00429   2.12512
    A8        2.08055  -0.00079  -0.00178  -0.00277  -0.00455   2.07601
    A9        2.08180   0.00026  -0.00162   0.00187   0.00025   2.08206
   A10        2.06621  -0.00124  -0.00362  -0.00393  -0.00755   2.05865
   A11        2.10349   0.00034   0.00117   0.00034   0.00151   2.10500
   A12        2.11349   0.00091   0.00245   0.00359   0.00605   2.11953
   A13        2.10781   0.00057   0.00172   0.00178   0.00349   2.11130
   A14        2.08189   0.00026  -0.00161   0.00338   0.00178   2.08367
   A15        2.09349  -0.00083  -0.00012  -0.00516  -0.00527   2.08822
   A16        2.11174   0.00084   0.00223   0.00245   0.00468   2.11641
   A17        2.10474  -0.00017   0.00133  -0.00089   0.00043   2.10518
   A18        2.06671  -0.00068  -0.00355  -0.00156  -0.00511   2.06160
   A19        2.10755   0.00155   0.00169   0.00625   0.00793   2.11548
   A20        2.11803  -0.00035   0.00303  -0.00310  -0.00007   2.11796
   A21        2.05761  -0.00120  -0.00472  -0.00315  -0.00786   2.04974
   A22        2.10218   0.00049   0.00100   0.00195   0.00296   2.10514
   A23        2.11425   0.00064   0.00255   0.00344   0.00599   2.12023
   A24        2.06676  -0.00113  -0.00355  -0.00540  -0.00895   2.05781
   A25        2.12083   0.00054   0.00339   0.00090   0.00429   2.12512
   A26        2.08055  -0.00079  -0.00178  -0.00277  -0.00455   2.07601
   A27        2.08180   0.00026  -0.00162   0.00187   0.00025   2.08206
   A28        2.06621  -0.00124  -0.00362  -0.00393  -0.00755   2.05865
   A29        2.10349   0.00034   0.00117   0.00034   0.00151   2.10500
   A30        2.11349   0.00091   0.00245   0.00359   0.00605   2.11953
   A31        2.10781   0.00057   0.00172   0.00178   0.00349   2.11130
   A32        2.08189   0.00026  -0.00161   0.00338   0.00178   2.08367
   A33        2.09349  -0.00083  -0.00012  -0.00516  -0.00527   2.08822
   A34        2.11174   0.00084   0.00223   0.00245   0.00468   2.11641
   A35        2.10474  -0.00017   0.00133  -0.00089   0.00043   2.10518
   A36        2.06671  -0.00068  -0.00355  -0.00156  -0.00511   2.06160
    D1        0.00000  -0.00000  -0.00000  -0.00000  -0.00000  -0.00000
    D2        3.14159  -0.00000   0.00000  -0.00000  -0.00000   3.14159
    D3       -3.14159  -0.00000  -0.00000  -0.00000  -0.00000  -3.14159
    D4       -0.00000  -0.00000   0.00000  -0.00000  -0.00000  -0.00000
    D5       -0.00000   0.00000   0.00000   0.00000   0.00000   0.00000
    D6        3.14159  -0.00000   0.00000  -0.00000  -0.00000   3.14159
    D7        3.14159   0.00000   0.00000   0.00000   0.00000   3.14159
    D8       -0.00000  -0.00000  -0.00000  -0.00000  -0.00000  -0.00000
    D9       -0.00001  -0.00000  -0.00000  -0.00001  -0.00002  -0.00002
   D10        3.14159  -0.00000  -0.00000  -0.00002  -0.00002   3.14157
   D11        3.14159  -0.00000  -0.00000  -0.00001  -0.00001   3.14157
   D12       -0.00001  -0.00000  -0.00000  -0.00002  -0.00002  -0.00002
   D13       -0.00000   0.00000  -0.00000   0.00000   0.00000   0.00000
   D14       -3.14159  -0.00000   0.00000  -0.00000  -0.00000   3.14159
   D15       -3.14159   0.00000  -0.00000   0.00000   0.00000  -3.14159
   D16        0.00000  -0.00000  -0.00000  -0.00000  -0.00000   0.00000
   D17       -0.00000   0.00000   0.00000  -0.00000   0.00000   0.00000
   D18        3.14159  -0.00000   0.00000  -0.00000  -0.00000   3.14159
   D19        3.14159   0.00000   0.00000   0.00000   0.00000  -3.14159
   D20       -0.00000   0.00000  -0.00000   0.00000   0.00000   0.00000
   D21        0.00000  -0.00000  -0.00000   0.00000  -0.00000   0.00000
   D22       -3.14159  -0.00000  -0.00000  -0.00000  -0.00000  -3.14159
   D23       -3.14159   0.00000  -0.00000   0.00000   0.00000  -3.14159
   D24        0.00000  -0.00000  -0.00000  -0.00000  -0.00000   0.00000
   D25        0.00000  -0.00000   0.00000  -0.00000  -0.00000  -0.00000
   D26       -3.14159   0.00000   0.00000   0.00000   0.00000  -3.14159
   D27        3.14159   0.00000   0.00000   0.00000   0.00000   3.14159
   D28       -0.00000   0.00000   0.00000   0.00000   0.00000   0.00000
   D29       -3.14159  -0.00000   0.00000  -0.00000  -0.00000   3.14159
   D30        0.00000  -0.00000  -0.00000  -0.00000  -0.00000  -0.00000
   D31        0.00000  -0.00000  -0.00000  -0.00000  -0.00000   0.00000
   D32       -3.14159  -0.00000  -0.00000  -0.00000  -0.00000   3.14159
   D33        3.14159   0.00000  -0.00000   0.00000   0.00000  -3.14159
   D34       -0.00000  -0.00000  -0.00000   0.00000  -0.00000  -0.00000
   D35        0.00000  -0.00000   0.00000  -0.00000  -0.00000  -0.00000
   D36        3.14159  -0.00000   0.00000  -0.00000  -0.00000   3.14159
   D37       -0.00000   0.00000   0.00000   0.00000   0.00000  -0.00000
   D38        3.14159   0.00000  -0.00000   0.00000   0.00000   3.14159
   D39        3.14159   0.00000   0.00000   0.00000   0.00000  -3.14159
   D40       -0.00000   0.00000   0.00000   0.00000   0.00000   0.00000
   D41        0.00000  -0.00000   0.00000  -0.00000  -0.00000   0.00000
   D42       -3.14159  -0.00000  -0.00000  -0.00000  -0.00000  -3.14159
   D43       -3.14159  -0.00000   0.00000  -0.00000  -0.00000  -3.14159
   D44        0.00000  -0.00000  -0.00000  -0.00000  -0.00000   0.00000
   D45        0.00000  -0.00000   0.00000  -0.00000  -0.00000   0.00000
   D46       -3.14159  -0.00000  -0.00000  -0.00000  -0.00000  -3.14159
   D47        3.14159   0.00000   0.00000  -0.00000   0.00000  -3.14159
   D48        0.00000  -0.00000  -0.00000   0.00000  -0.00000   0.00000
   D49       -0.00000   0.00000  -0.00000   0.00000   0.00000  -0.00000
   D50       -3.14159   0.00000  -0.00000   0.00000   0.00000  -3.14159
   D51        3.14159   0.00000   0.00000   0.00000   0.00000   3.14159
   D52       -0.00000   0.00000   0.00000   0.00000   0.00000   0.00000
         Item               Value     Threshold  Converged?
 Maximum Force            0.008339     0.000450     NO 
 RMS     Force            0.001073     0.000300     NO 
 Maximum Displacement     0.034152     0.001800     NO 
 RMS     Displacement     0.009358     0.001200     NO 
 Predicted change in Energy=-2.733282D-04
 GradGradGradGradGradGradGradGradGradGradGradGradGradGradGradGradGradGrad

                          Input orientation:                          
 ---------------------------------------------------------------------
 Center     Atomic      Atomic             Coordinates (Angstroms)
 Number     Number       Type             X           Y           Z
 ---------------------------------------------------------------------
      1          6           0       -3.459835   -2.807470   -0.149808
      2          6           0       -2.060922   -2.888056   -0.238709
      3          6           0       -1.255452   -2.004687    0.467460
      4          6           0       -1.793320   -1.015803    1.281913
      5          6           0       -3.179046   -0.929768    1.375033
      6          6           0       -3.999116   -1.807057    0.674058
      7          6           0       -4.338958   -3.750971   -0.903734
      8          6           0       -3.796341   -4.750545   -1.727005
      9          6           0       -4.625024   -5.621000   -2.422268
     10          6           0       -6.009291   -5.540513   -2.333660
     11          6           0       -6.554413   -4.552332   -1.519628
     12          6           0       -5.737822   -3.673106   -0.817019
     13          1           0       -1.576613   -3.632929   -0.853507
     14          1           0       -1.147425   -0.336562    1.824459
     15          1           0       -3.623829   -0.166350    2.004280
     16          1           0       -5.070049   -1.698735    0.780098
     17          1           0       -2.728539   -4.869182   -1.841421
     18          1           0       -6.638060   -6.229282   -2.884253
     19          1           0       -7.632439   -4.468543   -1.433428
     20          1           0       -6.210450   -2.922677   -0.197863
     21         17           0        0.491415   -2.145178    0.323979
     22         17           0       -3.898520   -6.856556   -3.440827
 ---------------------------------------------------------------------
                    Distance matrix (angstroms):
                    1          2          3          4          5
     1  C    0.000000
     2  C    1.404050   0.000000
     3  C    2.425858   1.388452   0.000000
     4  C    2.834989   2.426774   1.389434   0.000000
     5  C    2.435107   2.772951   2.383140   1.391513   0.000000
     6  C    1.403711   2.399645   2.758520   2.420972   1.390510
     7  C    1.493806   2.525139   3.799696   4.328795   3.807541
     8  C    2.525139   2.948825   4.337226   5.197497   4.960044
     9  C    3.799696   4.337226   5.725580   6.553422   6.206288
[...]
     12          6           0        0.593527   -1.403338    1.851576
     13          1           0        0.672912    1.011633   -1.279453
     14          1           0       -0.539324    4.611232    0.706708
     15          1           0       -1.157335    3.286344    2.717684
     16          1           0       -0.885747    0.832804    2.724999
     17          1           0       -0.672912   -1.011633   -1.279453
     18          1           0        0.539324   -4.611232    0.706708
     19          1           0        1.157335   -3.286344    2.717684
     20          1           0        0.885747   -0.832804    2.724999
     21         17           0        0.532300    3.799702   -1.820424
     22         17           0       -0.532300   -3.799702   -1.820424
 ---------------------------------------------------------------------
 Rotational constants (GHZ):           0.9814409           0.2618929           0.2161146

 **********************************************************************

            Population analysis using the SCF Density.

 **********************************************************************

 Orbital symmetries:
       Occupied  (B) (A) (B) (A) (A) (B) (B) (A) (B) (A) (A) (B)
                 (B) (A) (B) (A) (B) (A) (B) (A) (B) (A) (A) (B)
                 (A) (B) (A) (B) (A) (B) (A) (A) (B) (B) (A) (B)
                 (A) (A) (B) (B) (A) (A) (B) (B) (A) (B) (A) (A)
                 (B) (B) (A) (B) (A) (B) (A) (B) (A)
       Virtual   (B) (B) (A) (A) (A) (B) (A) (B) (A) (A) (B) (B)
                 (A) (B) (A) (B) (A) (B) (A) (B) (A) (B) (B) (A)
                 (A) (B) (A) (B) (B) (A) (A) (B) (A) (A) (B) (A)
                 (B) (A) (B) (A) (B) (A) (B) (B) (A) (A) (B) (A)
                 (B) (B) (A) (B) (B) (A) (A) (B) (B) (A) (A) (B)
                 (B) (A) (B) (A) (B) (A) (A) (A) (B) (B) (A) (B)
                 (A) (B) (A) (A) (A) (B) (B) (B) (A) (B) (A) (B)
                 (A) (B) (B) (A) (A) (B) (B) (A) (B) (A) (A) (B)
                 (A) (B) (A) (B) (A) (A) (B) (B) (A) (B) (A) (A)
                 (A) (B) (B) (A) (A) (B) (B) (A) (A) (B) (B) (A)
                 (B) (B) (B) (A) (B) (A) (B) (A) (B) (A) (B) (A)
                 (A) (B) (A) (B) (B) (B) (A) (A) (A) (B) (B) (A)
                 (B) (A) (A) (B) (B) (A) (B) (A) (B) (A) (B) (A)
                 (B) (A) (B) (A) (B) (A) (A) (B) (A) (B) (B) (A)
                 (B) (A) (A) (B) (A) (B) (A) (A) (B) (B) (A) (B)
                 (A) (B) (B) (A) (B) (A) (B) (A) (B) (A) (A) (B)
                 (A) (B) (A) (B) (A) (B) (A) (A) (B) (B) (B) (B)
                 (A) (B) (A) (A) (A) (B) (A) (B) (B) (A) (A) (B)
                 (A) (B) (B) (A) (A) (B) (A) (B) (B) (A) (A) (B)
                 (B) (A) (A) (B) (A) (B) (A) (B) (A) (B) (A) (A)
                 (B) (B) (A) (B) (A) (B) (A) (B) (B) (A) (A) (B)
                 (B) (A) (B) (A) (B) (A) (A) (B) (A) (B) (A) (B)
                 (A) (B) (B) (A) (A) (B) (A) (B) (B) (A) (A) (A)
                 (B) (A) (B) (B) (A) (B) (A) (A) (B) (A) (A) (B)
                 (B) (B) (A) (B) (A) (B) (A) (B) (A) (B) (B) (A)
                 (B) (A) (B) (A) (B) (A) (B) (A) (B) (A) (A) (B)
                 (A) (B)
 The electronic state is 1-A.
 Alpha  occ. eigenvalues -- -101.55975-101.55975 -10.24984 -10.24983 -10.21079
 Alpha  occ. eigenvalues --  -10.21050 -10.19891 -10.19890 -10.19855 -10.19854
 Alpha  occ. eigenvalues --  -10.19799 -10.19799 -10.19441 -10.19441  -9.47433
 Alpha  occ. eigenvalues --   -9.47433  -7.23891  -7.23891  -7.22917  -7.22917
 Alpha  occ. eigenvalues --   -7.22883  -7.22883  -0.91062  -0.90190  -0.86273
 Alpha  occ. eigenvalues --   -0.84327  -0.79809  -0.75838  -0.75663  -0.73933
 Alpha  occ. eigenvalues --   -0.65605  -0.63317  -0.61768  -0.59134  -0.54760
 Alpha  occ. eigenvalues --   -0.52306  -0.50148  -0.48909  -0.47551  -0.46268
 Alpha  occ. eigenvalues --   -0.44983  -0.44645  -0.44262  -0.41476  -0.40554
 Alpha  occ. eigenvalues --   -0.39835  -0.38491  -0.37137  -0.37037  -0.35284
 Alpha  occ. eigenvalues --   -0.34026  -0.32426  -0.32235  -0.29654  -0.26836
 Alpha  occ. eigenvalues --   -0.26387  -0.25086
 Alpha virt. eigenvalues --   -0.05923  -0.03675  -0.03513  -0.00944  -0.00716
 Alpha virt. eigenvalues --    0.00101   0.00956   0.01247   0.01527   0.02585
 Alpha virt. eigenvalues --    0.02946   0.04066   0.04722   0.04726   0.05106
 Alpha virt. eigenvalues --    0.05188   0.06387   0.07587   0.07663   0.07759
 Alpha virt. eigenvalues --    0.08576   0.09183   0.09980   0.10069   0.10498
 Alpha virt. eigenvalues --    0.10790   0.11350   0.11678   0.12831   0.12914
 Alpha virt. eigenvalues --    0.12960   0.13394   0.13427   0.13663   0.14199
 Alpha virt. eigenvalues --    0.15018   0.15525   0.16174   0.16499   0.17283
 Alpha virt. eigenvalues --    0.17354   0.17560   0.17864   0.18026   0.18748
 Alpha virt. eigenvalues --    0.19230   0.19626   0.19926   0.20335   0.21116
 Alpha virt. eigenvalues --    0.21215   0.21309   0.21939   0.22003   0.22580
 Alpha virt. eigenvalues --    0.22672   0.23334   0.23721   0.24774   0.25037
 Alpha virt. eigenvalues --    0.25466   0.26248   0.26607   0.26849   0.27381
 Alpha virt. eigenvalues --    0.27825   0.28804   0.29083   0.29227   0.29307
 Alpha virt. eigenvalues --    0.29674   0.30289   0.30595   0.30763   0.31610
 Alpha virt. eigenvalues --    0.33648   0.34501   0.34580   0.34831   0.36773
 Alpha virt. eigenvalues --    0.42863   0.44494   0.44966   0.45954   0.46127
 Alpha virt. eigenvalues --    0.46390   0.46651   0.47457   0.50713   0.50924
 Alpha virt. eigenvalues --    0.51320   0.51749   0.53475   0.53923   0.55148
 Alpha virt. eigenvalues --    0.55694   0.56052   0.57686   0.57937   0.58420
 Alpha virt. eigenvalues --    0.59100   0.60106   0.60197   0.60660   0.60876
 Alpha virt. eigenvalues --    0.62597   0.63278   0.65292   0.65601   0.66412
 Alpha virt. eigenvalues --    0.66881   0.66918   0.68728   0.68906   0.69486
 Alpha virt. eigenvalues --    0.70075   0.70350   0.70621   0.70698   0.73828
 Alpha virt. eigenvalues --    0.74637   0.76629   0.77162   0.77607   0.81131
 Alpha virt. eigenvalues --    0.81336   0.82304   0.83054   0.83381   0.84941
 Alpha virt. eigenvalues --    0.85068   0.85203   0.85941   0.86217   0.86624
 Alpha virt. eigenvalues --    0.87411   0.89065   0.89489   0.89493   0.90603
 Alpha virt. eigenvalues --    0.91210   0.92261   0.94621   0.95119   0.95373
 Alpha virt. eigenvalues --    0.95814   0.96554   0.97793   0.98408   1.01230
 Alpha virt. eigenvalues --    1.02244   1.03350   1.04743   1.06943   1.07249
 Alpha virt. eigenvalues --    1.09703   1.10665   1.10938   1.12855   1.12923
 Alpha virt. eigenvalues --    1.18376   1.18381   1.21245   1.24377   1.28490
 Alpha virt. eigenvalues --    1.28728   1.30916   1.30945   1.34084   1.37979
 Alpha virt. eigenvalues --    1.44776   1.47353   1.48024   1.49578   1.50026
 Alpha virt. eigenvalues --    1.51426   1.52970   1.54880   1.55314   1.56562
 Alpha virt. eigenvalues --    1.57895   1.58453   1.59638   1.61415   1.61632
 Alpha virt. eigenvalues --    1.65043   1.67358   1.69037   1.70060   1.70635
 Alpha virt. eigenvalues --    1.71150   1.73482   1.74596   1.74766   1.77281
 Alpha virt. eigenvalues --    1.81347   1.87393   1.89147   1.89741   1.90107
 Alpha virt. eigenvalues --    1.90527   1.90710   1.91975   1.92371   1.93028
 Alpha virt. eigenvalues --    1.96353   1.96792   1.97386   1.98825   1.99431
 Alpha virt. eigenvalues --    2.00478   2.01661   2.02864   2.04216   2.05766
 Alpha virt. eigenvalues --    2.07249   2.12376   2.18612   2.19907   2.23161
 Alpha virt. eigenvalues --    2.25485   2.28197   2.29177   2.31155   2.32854
 Alpha virt. eigenvalues --    2.33517   2.37577   2.38116   2.39237   2.40666
 Alpha virt. eigenvalues --    2.41687   2.42451   2.49153   2.50801   2.53708
 Alpha virt. eigenvalues --    2.54328   2.54899   2.63984   2.64350   2.65434
 Alpha virt. eigenvalues --    2.65610   2.66438   2.69159   2.69175   2.70531
 Alpha virt. eigenvalues --    2.71598   2.74278   2.75010   2.77093   2.77282
 Alpha virt. eigenvalues --    2.78463   2.78841   2.78990   2.80860   2.82158
 Alpha virt. eigenvalues --    2.82819   2.85049   2.85440   2.86868   2.87983
 Alpha virt. eigenvalues --    2.91387   2.91893   2.98213   3.02460   3.06752
 Alpha virt. eigenvalues --    3.08926   3.16043   3.17254   3.19267   3.20785
 Alpha virt. eigenvalues --    3.21636   3.34037   3.35110   3.36879   3.38173
 Alpha virt. eigenvalues --    3.49444   3.50254   3.55822   3.60114   3.63015
 Alpha virt. eigenvalues --    3.72930   3.78139   3.79634   3.99857   4.00277
 Alpha virt. eigenvalues --    4.09898   4.12193   4.12693   4.14985   4.45200
 Alpha virt. eigenvalues --    4.81250   4.84124   9.77839   9.78274  23.49510
 Alpha virt. eigenvalues --   23.64163  23.89965  23.90360  23.92861  23.95960
 Alpha virt. eigenvalues --   24.03975  24.05238  24.05893  24.07548  24.15356
 Alpha virt. eigenvalues --   24.16921  25.83021  25.83075  26.12487  26.13277
 Alpha virt. eigenvalues --   26.58873  26.60357 215.77036 215.77420
          Condensed to atoms (all electrons):
               1          2          3          4          5          6
     1  C   17.080140   0.937034  -2.289926  -1.411211  -0.764431  -3.304287
     2  C    0.937034  36.261564  -6.355049  -8.161872  -1.345930 -11.215597
     3  C   -2.289926  -6.355049  16.906210  -2.009906  -0.139145  -1.000568
     4  C   -1.411211  -8.161872  -2.009906  15.058033   0.408279   1.926962
     5  C   -0.764431  -1.345930  -0.139145   0.408279   7.751988  -0.454329
     6  C   -3.304287 -11.215597  -1.000568   1.926962  -0.454329  17.858196
     7  C   -3.793134  -4.953541   1.295345   0.676475   0.287497   1.584378
     8  C   -4.953541   5.473840  -1.607731  -0.150848  -0.119872  -2.040868
     9  C    1.295345  -1.607731   0.571870  -0.226860   0.126890   0.633867
    10  C    0.676475  -0.150848  -0.226860   0.059012  -0.055001   0.323729
    11  C    0.287497  -0.119872   0.126890  -0.055001   0.083479  -0.023255
    12  C    1.584378  -2.040868   0.633867   0.323729  -0.023255   1.819435
    13  H   -0.027181   0.171641   0.039110   0.064234  -0.016238   0.032766
    14  H    0.038495   0.007603   0.070549   0.295114  -0.000998  -0.060196
    15  H   -0.002426  -0.053252  -0.009642   0.006237   0.375967   0.015486
    16  H    0.007266   0.004577   0.001694  -0.003404  -0.000313   0.333586
    17  H    0.046098   0.096595  -0.028078  -0.002057  -0.000743  -0.025066
    18  H    0.003940   0.000238   0.000104  -0.000023   0.000017  -0.001526
    19  H    0.015295  -0.000389  -0.000759   0.000083   0.000108  -0.000236
    20  H   -0.035445  -0.023448  -0.007921   0.005057  -0.002157   0.066687
    21  Cl  -0.260904   0.499524  -0.945658  -0.160841   0.208407   0.023263
    22  Cl  -0.076279  -0.023964   0.042468  -0.007351   0.007258  -0.018407
               7          8          9         10         11         12
     1  C   -3.793134  -4.953541   1.295345   0.676475   0.287497   1.584378
     2  C   -4.953541   5.473840  -1.607731  -0.150848  -0.119872  -2.040868
     3  C    1.295345  -1.607731   0.571870  -0.226860   0.126890   0.633867
     4  C    0.676475  -0.150848  -0.226860   0.059012  -0.055001   0.323729
     5  C    0.287497  -0.119872   0.126890  -0.055001   0.083479  -0.023255
     6  C    1.584378  -2.040868   0.633867   0.323729  -0.023255   1.819435
     7  C   17.080140   0.937034  -2.289926  -1.411211  -0.764431  -3.304287
     8  C    0.937034  36.261564  -6.355049  -8.161872  -1.345930 -11.215597
     9  C   -2.289926  -6.355049  16.906210  -2.009906  -0.139145  -1.000568
    10  C   -1.411211  -8.161872  -2.009906  15.058033   0.408279   1.926962
    11  C   -0.764431  -1.345930  -0.139145   0.408279   7.751988  -0.454329
    12  C   -3.304287 -11.215597  -1.000568   1.926962  -0.454329  17.858196
    13  H    0.046098   0.096595  -0.028078  -0.002057  -0.000743  -0.025066
    14  H    0.003940   0.000238   0.000104  -0.000023   0.000017  -0.001526
    15  H    0.015295  -0.000389  -0.000759   0.000083   0.000108  -0.000236
    16  H   -0.035445  -0.023448  -0.007921   0.005057  -0.002157   0.066687
    17  H   -0.027181   0.171641   0.039110   0.064234  -0.016238   0.032766
    18  H    0.038495   0.007603   0.070549   0.295114  -0.000998  -0.060196
    19  H   -0.002426  -0.053252  -0.009642   0.006237   0.375967   0.015486
    20  H    0.007266   0.004577   0.001694  -0.003404  -0.000313   0.333586
    21  Cl  -0.076279  -0.023964   0.042468  -0.007351   0.007258  -0.018407
    22  Cl  -0.260904   0.499524  -0.945658  -0.160841   0.208407   0.023263
              13         14         15         16         17         18
     1  C   -0.027181   0.038495  -0.002426   0.007266   0.046098   0.003940
     2  C    0.171641   0.007603  -0.053252   0.004577   0.096595   0.000238
     3  C    0.039110   0.070549  -0.009642   0.001694  -0.028078   0.000104
     4  C    0.064234   0.295114   0.006237  -0.003404  -0.002057  -0.000023
     5  C   -0.016238  -0.000998   0.375967  -0.000313  -0.000743   0.000017
     6  C    0.032766  -0.060196   0.015486   0.333586  -0.025066  -0.001526
     7  C    0.046098   0.003940   0.015295  -0.035445  -0.027181   0.038495
     8  C    0.096595   0.000238  -0.000389  -0.023448   0.171641   0.007603
     9  C   -0.028078   0.000104  -0.000759  -0.007921   0.039110   0.070549
    10  C   -0.002057  -0.000023   0.000083   0.005057   0.064234   0.295114
    11  C   -0.000743   0.000017   0.000108  -0.002157  -0.016238  -0.000998
    12  C   -0.025066  -0.001526  -0.000236   0.066687   0.032766  -0.060196
    13  H    0.508883  -0.000274   0.000069  -0.000190  -0.000598   0.000001
    14  H   -0.000274   0.512390  -0.007963  -0.000200   0.000001   0.000000
    15  H    0.000069  -0.007963   0.533054  -0.007330   0.000000  -0.000000
    16  H   -0.000190  -0.000200  -0.007330   0.531901   0.000004   0.000001
    17  H   -0.000598   0.000001   0.000000   0.000004   0.508883  -0.000274
    18  H    0.000001   0.000000  -0.000000   0.000001  -0.000274   0.512390
    19  H    0.000000  -0.000000   0.000000   0.000036   0.000069  -0.007963
    20  H    0.000004   0.000001   0.000036  -0.000311  -0.000190  -0.000200
    21  Cl  -0.011961  -0.007239   0.000529   0.000435   0.000211   0.000000
    22  Cl   0.000211   0.000000  -0.000001  -0.000094  -0.011961  -0.007239
              19         20         21         22
     1  C    0.015295  -0.035445  -0.260904  -0.076279
     2  C   -0.000389  -0.023448   0.499524  -0.023964
     3  C   -0.000759  -0.007921  -0.945658   0.042468
     4  C    0.000083   0.005057  -0.160841  -0.007351
     5  C    0.000108  -0.002157   0.208407   0.007258
     6  C   -0.000236   0.066687   0.023263  -0.018407
     7  C   -0.002426   0.007266  -0.076279  -0.260904
     8  C   -0.053252   0.004577  -0.023964   0.499524
     9  C   -0.009642   0.001694   0.042468  -0.945658
    10  C    0.006237  -0.003404  -0.007351  -0.160841
    11  C    0.375967  -0.000313   0.007258   0.208407
    12  C    0.015486   0.333586  -0.018407   0.023263
    13  H    0.000000   0.000004  -0.011961   0.000211
    14  H   -0.000000   0.000001  -0.007239   0.000000
    15  H    0.000000   0.000036   0.000529  -0.000001
    16  H    0.000036  -0.000311   0.000435  -0.000094
    17  H    0.000069  -0.000190   0.000211  -0.011961
    18  H   -0.007963  -0.000200   0.000000  -0.007239
    19  H    0.533054  -0.007330  -0.000001   0.000529
    20  H   -0.007330   0.531901  -0.000094   0.000435
    21  Cl  -0.000001  -0.000094  17.341647   0.000739
    22  Cl   0.000529   0.000435   0.000739  17.341647
 Mulliken charges:
               1
     1  C    0.946799
     2  C   -1.400255
     3  C    0.933138
     4  C   -0.633842
     5  C   -0.327479
     6  C   -0.474023
     7  C    0.946799
     8  C   -1.400255
     9  C    0.933138
    10  C   -0.633842
    11  C   -0.327479
    12  C   -0.474023
    13  H    0.152772
    14  H    0.149965
    15  H    0.135135
    16  H    0.129569
    17  H    0.152772
    18  H    0.149965
    19  H    0.135135
    20  H    0.129569
    21  Cl   0.388220
    22  Cl   0.388220
 Sum of Mulliken charges =  -0.00000
 Mulliken charges with hydrogens summed into heavy atoms:
               1
     1  C    0.946799
     2  C   -1.247482
     3  C    0.933138
     4  C   -0.483876
     5  C   -0.192344
     6  C   -0.344454
     7  C    0.946799
     8  C   -1.247482
     9  C    0.933138
    10  C   -0.483876
    11  C   -0.192344
    12  C   -0.344454
    21  Cl   0.388220
    22  Cl   0.388220
 Electronic spatial extent (au):  <R**2>=           4610.7043
 Charge=              0.0000 electrons
 Dipole moment (field-independent basis, Debye):
    X=             -0.0000    Y=             -0.0000    Z=              2.9048  Tot=              2.9048
 Quadrupole moment (field-independent basis, Debye-Ang):
   XX=            -98.7729   YY=            -95.2652   ZZ=            -90.5575
   XY=             -5.1477   XZ=             -0.0000   YZ=              0.0000
 Traceless Quadrupole moment (field-independent basis, Debye-Ang):
   XX=             -3.9077   YY=             -0.4000   ZZ=              4.3077
   XY=             -5.1477   XZ=             -0.0000   YZ=              0.0000
 Octapole moment (field-independent basis, Debye-Ang**2):
  XXX=              0.0000  YYY=              0.0000  ZZZ=              2.0452  XYY=             -0.0000
  XXY=              0.0000  XXZ=             -5.6240  XZZ=             -0.0000  YZZ=              0.0000
  YYZ=             35.8625  XYZ=            -10.8903
 Hexadecapole moment (field-independent basis, Debye-Ang**3):
 XXXX=           -269.2987 YYYY=          -4578.0735 ZZZZ=          -1209.5737 XXXY=             -0.4347
 XXXZ=             -0.0000 YYYX=            -99.5036 YYYZ=             -0.0000 ZZZX=             -0.0000
 ZZZY=             -0.0000 XXYY=           -855.6458 XXZZ=           -250.3253 YYZZ=           -972.2743
 XXYZ=              0.0000 YYXZ=             -0.0000 ZZXY=            -26.4917
 N-N= 9.437026827768D+02 E-N=-5.146884587195D+03  KE= 1.378416505612D+03
 Symmetry A    KE= 6.903597301402D+02
 Symmetry B    KE= 6.880567754717D+02
 1\1\GINC-DAMODAR\FOpt\RB3LYP\6-311+G(d,p)\C12H8Cl2\PKC\14-Mar-2022\0\\
 # opt b3lyp/6-311+g(d,p) scf=xqc\\Title Card Required\\0,1\C,-3.463222
 2095,-2.8037817025,-0.1582963533\C,-2.1230556681,-3.1256911764,0.09794
 89343\C,-1.3149250206,-2.2284038228,0.7855002345\C,-1.8010200898,-1.00
 50818737,1.2346543761\C,-3.133230176,-0.6863130872,0.9803909796\C,-3.9
 576164298,-1.5720316817,0.2930749162\C,-4.3374667338,-3.753604452,-0.8
 943547096\C,-3.849345413,-4.44885346,-2.0095677423\C,-4.675899775,-5.3
 358908754,-2.6884631974\C,-5.990431807,-5.5574432637,-2.291645196\C,-6
 .4750439797,-4.8654323974,-1.1838008337\C,-5.6620361051,-3.9733835006,
 -0.4911389706\H,-1.7181499095,-4.0794731617,-0.2150299519\H,-1.1529361
 647,-0.3217725223,1.7678177107\H,-3.5256215894,0.2671022209,1.31517997
 59\H,-4.9841025191,-1.2969894332,0.0822481222\H,-2.8393443361,-4.28224
 75636,-2.3613415787\H,-6.6157259319,-6.2534316026,-2.8355156538\H,-7.4
 943292134,-5.0334687153,-0.8553547173\H,-6.0476758275,-3.4627968684,0.
 383133963\Cl,0.3615792127,-2.6583110092,1.1043542456\Cl,-4.0444474741,
 -6.190003352,-4.0916432937\\Version=EM64L-G16RevB.01\State=1-A\HF=-138
 2.6680886\RMSD=5.731e-09\RMSF=3.233e-06\Dipole=-0.9238392,0.5139732,0.
 4340389\Quadrupole=2.2028393,2.139955,-4.3427943,0.3026726,-2.4864857,
 1.9026369\PG=C02 [X(C12H8Cl2)]\\@


 ONE THORN OF EXPERIENCE IS WORTH A WHOLE WILDERNESS OF
 WARNING....  LOWELL - AMONG MY BOOKS
 Job cpu time:       0 days  6 hours 26 minutes 56.6 seconds.
 Elapsed time:       0 days  2 hours 26 minutes 32.3 seconds.
 File lengths (MBytes):  RWF=     88 Int=      0 D2E=      0 Chk=     14 Scr=      1
 Normal termination of Gaussian 16 at Mon Mar 14 19:31:50 2022.
