 Entering Gaussian System, Link 0=g16
 Input=3,4-Dichlorobiphenyl.gjf
 Output=3,4-Dichlorobiphenyl.log
 Initial command:
 /usr/local/g16/l1.exe "/scratch/pkc/Gau-3079.inp" -scrdir="/scratch/pkc/"
 Entering Link 1 = /usr/local/g16/l1.exe PID=      3080.
  
 Copyright (c) 1988-2017, Gaussian, Inc.  All Rights Reserved.
  
 This is part of the Gaussian(R) 16 program.  It is based on
 the Gaussian(R) 09 system (copyright 2009, Gaussian, Inc.),
 the Gaussian(R) 03 system (copyright 2003, Gaussian, Inc.),
 the Gaussian(R) 98 system (copyright 1998, Gaussian, Inc.),
 the Gaussian(R) 94 system (copyright 1995, Gaussian, Inc.),
 the Gaussian 92(TM) system (copyright 1992, Gaussian, Inc.),
 the Gaussian 90(TM) system (copyright 1990, Gaussian, Inc.),
 the Gaussian 88(TM) system (copyright 1988, Gaussian, Inc.),
 the Gaussian 86(TM) system (copyright 1986, Carnegie Mellon
 University), and the Gaussian 82(TM) system (copyright 1983,
 Carnegie Mellon University). Gaussian is a federally registered
 trademark of Gaussian, Inc.
  
 This software contains proprietary and confidential information,
 including trade secrets, belonging to Gaussian, Inc.
  
 This software is provided under written license and may be
 used, copied, transmitted, or stored only in accord with that
 written license.
  
 The following legend is applicable only to US Government
 contracts under FAR:
  
                    RESTRICTED RIGHTS LEGEND
  
 Use, reproduction and disclosure by the US Government is
 subject to restrictions as set forth in subparagraphs (a)
 and (c) of the Commercial Computer Software - Restricted
 Rights clause in FAR 52.227-19.
  
 Gaussian, Inc.
 340 Quinnipiac St., Bldg. 40, Wallingford CT 06492
  
  
 ---------------------------------------------------------------
 Warning -- This program may not be used in any manner that
 competes with the business of Gaussian, Inc. or will provide
 assistance to any competitor of Gaussian, Inc.  The licensee
 of this program is prohibited from giving any competitor of
 Gaussian, Inc. access to this program.  By using this program,
 the user acknowledges that Gaussian, Inc. is engaged in the
 business of creating and licensing software in the field of
 computational chemistry and represents and warrants to the
 licensee that it is not a competitor of Gaussian, Inc. and that
 it will not use this program in any manner prohibited above.
 ---------------------------------------------------------------
  

 Cite this work as:
 Gaussian 16, Revision B.01,
 M. J. Frisch, G. W. Trucks, H. B. Schlegel, G. E. Scuseria, 
 M. A. Robb, J. R. Cheeseman, G. Scalmani, V. Barone, 
 G. A. Petersson, H. Nakatsuji, X. Li, M. Caricato, A. V. Marenich, 
 J. Bloino, B. G. Janesko, R. Gomperts, B. Mennucci, H. P. Hratchian, 
 J. V. Ortiz, A. F. Izmaylov, J. L. Sonnenberg, D. Williams-Young, 
 F. Ding, F. Lipparini, F. Egidi, J. Goings, B. Peng, A. Petrone, 
 T. Henderson, D. Ranasinghe, V. G. Zakrzewski, J. Gao, N. Rega, 
 G. Zheng, W. Liang, M. Hada, M. Ehara, K. Toyota, R. Fukuda, 
 J. Hasegawa, M. Ishida, T. Nakajima, Y. Honda, O. Kitao, H. Nakai, 
 T. Vreven, K. Throssell, J. A. Montgomery, Jr., J. E. Peralta, 
 F. Ogliaro, M. J. Bearpark, J. J. Heyd, E. N. Brothers, K. N. Kudin, 
 V. N. Staroverov, T. A. Keith, R. Kobayashi, J. Normand, 
 K. Raghavachari, A. P. Rendell, J. C. Burant, S. S. Iyengar, 
 J. Tomasi, M. Cossi, J. M. Millam, M. Klene, C. Adamo, R. Cammi, 
 J. W. Ochterski, R. L. Martin, K. Morokuma, O. Farkas, 
 J. B. Foresman, and D. J. Fox, Gaussian, Inc., Wallingford CT, 2016.
 
 ******************************************
 Gaussian 16:  EM64L-G16RevB.01 20-Dec-2017
                14-Mar-2022 
 ******************************************
 %mem=10GB
 %nprocshared=4
 Will use up to    4 processors via shared memory.
 --------------------------------
 # opt b3lyp/6-311+g(d,p) scf=xqc
 --------------------------------
 1/18=20,19=15,26=3,38=1/1,3;
 2/9=110,12=2,17=6,18=5,40=1/2;
 3/5=4,6=6,7=111,11=2,25=1,30=1,71=1,74=-5/1,2,3;
 4//1;
 5/5=2,8=3,13=1,38=5/2,8;
 6/7=2,8=2,9=2,10=2,28=1/1;
 7//1,2,3,16;
 1/18=20,19=15,26=3/3(2);
 2/9=110/2;
 99//99;
 2/9=110/2;
 3/5=4,6=6,7=111,11=2,25=1,30=1,71=1,74=-5/1,2,3;
 4/5=5,16=3,69=1/1;
 5/5=2,8=3,13=1,38=5/2,8;
 7//1,2,3,16;
 1/18=20,19=15,26=3/3(-5);
 2/9=110/2;
 6/7=2,8=2,9=2,10=2,19=2,28=1/1;
 99/9=1/99;
 -------------------
 Title Card Required
 -------------------
 Symbolic Z-matrix:
 Charge =  0 Multiplicity = 1
 C                    -1.91101  -0.78015   0.0942 
 C                    -0.57863  -0.75026  -0.33915 
 C                     0.12926   0.45919  -0.34522 
 C                    -0.49523   1.63875   0.08205 
 C                    -1.82761   1.60887   0.5154 
 C                    -2.5355    0.39942   0.52147 
 C                    -2.68892  -2.10922   0.10087 
 C                    -2.06443  -3.28878  -0.32641 
 C                    -2.77232  -4.49823  -0.32033 
 C                    -4.1047   -4.52812   0.11302 
 C                    -4.72919  -3.34855   0.54029 
 C                    -4.0213   -2.1391    0.53422 
 H                    -0.10182  -1.65089  -0.66538 
 H                    -2.30442   2.50949   0.84163 
 H                    -3.5528    0.3766    0.85234 
 H                    -1.04713  -3.26596  -0.65728 
 H                    -2.29551  -5.39886  -0.64657 
 H                    -4.6452   -5.45156   0.11766 
 H                    -5.74649  -3.37137   0.87117 
 H                    -4.49811  -1.23848   0.86046 
 Cl                    1.80258   0.49672  -0.88946 
 Cl                    0.39381   3.15769   0.07443 
 

 GradGradGradGradGradGradGradGradGradGradGradGradGradGradGradGradGradGrad
 Berny optimization.
 Initialization pass.
                           ----------------------------
                           !    Initial Parameters    !
                           ! (Angstroms and Degrees)  !
 --------------------------                            --------------------------
 ! Name  Definition              Value          Derivative Info.                !
 --------------------------------------------------------------------------------
 ! R1    R(1,2)                  1.4014         estimate D2E/DX2                !
 ! R2    R(1,6)                  1.4014         estimate D2E/DX2                !
 ! R3    R(1,7)                  1.54           estimate D2E/DX2                !
 ! R4    R(2,3)                  1.4014         estimate D2E/DX2                !
 ! R5    R(2,13)                 1.07           estimate D2E/DX2                !
 ! R6    R(3,4)                  1.4014         estimate D2E/DX2                !
 ! R7    R(3,21)                 1.76           estimate D2E/DX2                !
 ! R8    R(4,5)                  1.4014         estimate D2E/DX2                !
 ! R9    R(4,22)                 1.76           estimate D2E/DX2                !
 ! R10   R(5,6)                  1.4014         estimate D2E/DX2                !
 ! R11   R(5,14)                 1.07           estimate D2E/DX2                !
 ! R12   R(6,15)                 1.07           estimate D2E/DX2                !
 ! R13   R(7,8)                  1.4014         estimate D2E/DX2                !
 ! R14   R(7,12)                 1.4014         estimate D2E/DX2                !
 ! R15   R(8,9)                  1.4014         estimate D2E/DX2                !
 ! R16   R(8,16)                 1.07           estimate D2E/DX2                !
 ! R17   R(9,10)                 1.4014         estimate D2E/DX2                !
 ! R18   R(9,17)                 1.07           estimate D2E/DX2                !
 ! R19   R(10,11)                1.4014         estimate D2E/DX2                !
 ! R20   R(10,18)                1.07           estimate D2E/DX2                !
 ! R21   R(11,12)                1.4014         estimate D2E/DX2                !
 ! R22   R(11,19)                1.07           estimate D2E/DX2                !
 ! R23   R(12,20)                1.07           estimate D2E/DX2                !
 ! A1    A(2,1,6)              120.0            estimate D2E/DX2                !
 ! A2    A(2,1,7)              120.0            estimate D2E/DX2                !
 ! A3    A(6,1,7)              120.0            estimate D2E/DX2                !
 ! A4    A(1,2,3)              120.0            estimate D2E/DX2                !
 ! A5    A(1,2,13)             120.0            estimate D2E/DX2                !
 ! A6    A(3,2,13)             120.0            estimate D2E/DX2                !
 ! A7    A(2,3,4)              120.0            estimate D2E/DX2                !
 ! A8    A(2,3,21)             120.0            estimate D2E/DX2                !
 ! A9    A(4,3,21)             120.0            estimate D2E/DX2                !
 ! A10   A(3,4,5)              120.0            estimate D2E/DX2                !
 ! A11   A(3,4,22)             120.0            estimate D2E/DX2                !
 ! A12   A(5,4,22)             120.0            estimate D2E/DX2                !
 ! A13   A(4,5,6)              120.0            estimate D2E/DX2                !
 ! A14   A(4,5,14)             120.0            estimate D2E/DX2                !
 ! A15   A(6,5,14)             120.0            estimate D2E/DX2                !
 ! A16   A(1,6,5)              120.0            estimate D2E/DX2                !
 ! A17   A(1,6,15)             120.0            estimate D2E/DX2                !
 ! A18   A(5,6,15)             120.0            estimate D2E/DX2                !
 ! A19   A(1,7,8)              120.0            estimate D2E/DX2                !
 ! A20   A(1,7,12)             120.0            estimate D2E/DX2                !
 ! A21   A(8,7,12)             120.0            estimate D2E/DX2                !
 ! A22   A(7,8,9)              120.0            estimate D2E/DX2                !
 ! A23   A(7,8,16)             120.0            estimate D2E/DX2                !
 ! A24   A(9,8,16)             120.0            estimate D2E/DX2                !
 ! A25   A(8,9,10)             120.0            estimate D2E/DX2                !
 ! A26   A(8,9,17)             120.0            estimate D2E/DX2                !
 ! A27   A(10,9,17)            120.0            estimate D2E/DX2                !
 ! A28   A(9,10,11)            120.0            estimate D2E/DX2                !
 ! A29   A(9,10,18)            120.0            estimate D2E/DX2                !
 ! A30   A(11,10,18)           120.0            estimate D2E/DX2                !
 ! A31   A(10,11,12)           120.0            estimate D2E/DX2                !
 ! A32   A(10,11,19)           120.0            estimate D2E/DX2                !
 ! A33   A(12,11,19)           120.0            estimate D2E/DX2                !
 ! A34   A(7,12,11)            120.0            estimate D2E/DX2                !
 ! A35   A(7,12,20)            120.0            estimate D2E/DX2                !
 ! A36   A(11,12,20)           120.0            estimate D2E/DX2                !
 ! D1    D(6,1,2,3)              0.0001         estimate D2E/DX2                !
 ! D2    D(6,1,2,13)           180.0            estimate D2E/DX2                !
 ! D3    D(7,1,2,3)           -180.0            estimate D2E/DX2                !
 ! D4    D(7,1,2,13)            -0.0001         estimate D2E/DX2                !
 ! D5    D(2,1,6,5)             -0.0001         estimate D2E/DX2                !
 ! D6    D(2,1,6,15)           180.0            estimate D2E/DX2                !
 ! D7    D(7,1,6,5)            180.0            estimate D2E/DX2                !
 ! D8    D(7,1,6,15)             0.0            estimate D2E/DX2                !
 ! D9    D(2,1,7,8)             -0.0001         estimate D2E/DX2                !
 ! D10   D(2,1,7,12)           179.9998         estimate D2E/DX2                !
 ! D11   D(6,1,7,8)            179.9999         estimate D2E/DX2                !
 ! D12   D(6,1,7,12)            -0.0002         estimate D2E/DX2                !
 ! D13   D(1,2,3,4)              0.0            estimate D2E/DX2                !
 ! D14   D(1,2,3,21)           180.0            estimate D2E/DX2                !
 ! D15   D(13,2,3,4)          -179.9999         estimate D2E/DX2                !
 ! D16   D(13,2,3,21)            0.0001         estimate D2E/DX2                !
 ! D17   D(2,3,4,5)             -0.0001         estimate D2E/DX2                !
 ! D18   D(2,3,4,22)           180.0            estimate D2E/DX2                !
 ! D19   D(21,3,4,5)           179.9999         estimate D2E/DX2                !
 ! D20   D(21,3,4,22)            0.0            estimate D2E/DX2                !
 ! D21   D(3,4,5,6)              0.0001         estimate D2E/DX2                !
 ! D22   D(3,4,5,14)          -179.9999         estimate D2E/DX2                !
 ! D23   D(22,4,5,6)          -180.0            estimate D2E/DX2                !
 ! D24   D(22,4,5,14)            0.0            estimate D2E/DX2                !
 ! D25   D(4,5,6,1)              0.0            estimate D2E/DX2                !
 ! D26   D(4,5,6,15)           179.9999         estimate D2E/DX2                !
 ! D27   D(14,5,6,1)           180.0            estimate D2E/DX2                !
 ! D28   D(14,5,6,15)           -0.0001         estimate D2E/DX2                !
 ! D29   D(1,7,8,9)            179.9999         estimate D2E/DX2                !
 ! D30   D(1,7,8,16)             0.0001         estimate D2E/DX2                !
 ! D31   D(12,7,8,9)             0.0001         estimate D2E/DX2                !
 ! D32   D(12,7,8,16)         -179.9998         estimate D2E/DX2                !
 ! D33   D(1,7,12,11)         -179.9999         estimate D2E/DX2                !
 ! D34   D(1,7,12,20)            0.0            estimate D2E/DX2                !
 ! D35   D(8,7,12,11)           -0.0001         estimate D2E/DX2                !
 ! D36   D(8,7,12,20)          179.9999         estimate D2E/DX2                !
 ! D37   D(7,8,9,10)             0.0            estimate D2E/DX2                !
 ! D38   D(7,8,9,17)           180.0            estimate D2E/DX2                !
 ! D39   D(16,8,9,10)          179.9998         estimate D2E/DX2                !
 ! D40   D(16,8,9,17)           -0.0002         estimate D2E/DX2                !
 ! D41   D(8,9,10,11)            0.0            estimate D2E/DX2                !
 ! D42   D(8,9,10,18)         -179.9999         estimate D2E/DX2                !
 ! D43   D(17,9,10,11)         180.0            estimate D2E/DX2                !
 ! D44   D(17,9,10,18)           0.0001         estimate D2E/DX2                !
 ! D45   D(9,10,11,12)           0.0            estimate D2E/DX2                !
 ! D46   D(9,10,11,19)        -179.9998         estimate D2E/DX2                !
 ! D47   D(18,10,11,12)        179.9999         estimate D2E/DX2                !
 ! D48   D(18,10,11,19)          0.0001         estimate D2E/DX2                !
 ! D49   D(10,11,12,7)           0.0            estimate D2E/DX2                !
 ! D50   D(10,11,12,20)       -179.9999         estimate D2E/DX2                !
 ! D51   D(19,11,12,7)         179.9999         estimate D2E/DX2                !
 ! D52   D(19,11,12,20)         -0.0001         estimate D2E/DX2                !
 --------------------------------------------------------------------------------
 Trust Radius=3.00D-01 FncErr=1.00D-07 GrdErr=1.00D-06 EigMax=2.50D+02 EigMin=1.00D-04
 Number of steps in this run=    121 maximum allowed number of steps=    132.
 GradGradGradGradGradGradGradGradGradGradGradGradGradGradGradGradGradGrad

                          Input orientation:                          
 ---------------------------------------------------------------------
 Center     Atomic      Atomic             Coordinates (Angstroms)
 Number     Number       Type             X           Y           Z
 ---------------------------------------------------------------------
      1          6           0       -1.911014   -0.780148    0.094196
      2          6           0       -0.578633   -0.750262   -0.339151
      3          6           0        0.129261    0.459189   -0.345223
      4          6           0       -0.495226    1.638754    0.082051
      5          6           0       -1.827608    1.608869    0.515396
      6          6           0       -2.535502    0.399418    0.521469
      7          6           0       -2.688919   -2.109215    0.100869
      8          6           0       -2.064431   -3.288780   -0.326406
      9          6           0       -2.772324   -4.498232   -0.320331
     10          6           0       -4.104704   -4.528118    0.113019
     11          6           0       -4.729191   -3.348553    0.540294
     12          6           0       -4.021298   -2.139102    0.534220
     13          1           0       -0.101822   -1.650886   -0.665383
     14          1           0       -2.304419    2.509493    0.841628
     15          1           0       -3.552804    0.376599    0.852338
     16          1           0       -1.047129   -3.265962   -0.657275
     17          1           0       -2.295514   -5.398856   -0.646565
     18          1           0       -4.645196   -5.451561    0.117658
     19          1           0       -5.746492   -3.371372    0.871169
     20          1           0       -4.498108   -1.238478    0.860455
     21         17           0        1.802581    0.496722   -0.889457
     22         17           0        0.393808    3.157688    0.074426
 ---------------------------------------------------------------------
                    Distance matrix (angstroms):
                    1          2          3          4          5
     1  C    0.000000
     2  C    1.401400   0.000000
     3  C    2.427296   1.401400   0.000000
     4  C    2.802800   2.427296   1.401400   0.000000
     5  C    2.427296   2.802800   2.427296   1.401400   0.000000
     6  C    1.401400   2.427296   2.802800   2.427296   1.401400
     7  C    1.540000   2.548270   3.838989   4.342800   3.838989
     8  C    2.548270   2.941400   4.342800   5.187469   4.975106
     9  C    3.838989   4.342800   5.744200   6.558176   6.235992
    10  C    4.342800   5.187469   6.558176   7.145600   6.558176
    11  C    3.838989   4.975106   6.235992   6.558176   5.744200
    12  C    2.548270   3.813607   4.975106   5.187469   4.342800
    13  H    2.146700   1.070000   2.146700   3.396345   3.872800
    14  H    3.396345   3.872800   3.396345   2.146700   1.070000
    15  H    2.146700   3.396345   3.872800   3.396345   2.146700
    16  H    2.736837   2.578650   3.918930   4.990735   5.074276
    17  H    4.693509   4.965039   6.347206   7.300676   7.118798
    18  H    5.412800   6.232802   7.612271   8.215600   7.612271
    19  H    4.693509   5.919617   7.118798   7.300676   6.347206
    20  H    2.736837   4.127917   5.074276   4.990735   3.918930
    21  Cl   4.048303   2.743718   1.760000   2.743718   4.048303
    22  Cl   4.562800   4.048303   2.743718   1.760000   2.743718
                    6          7          8          9         10
     6  C    0.000000
     7  C    2.548270   0.000000
     8  C    3.813607   1.401400   0.000000
     9  C    4.975106   2.427296   1.401400   0.000000
    10  C    5.187469   2.802800   2.427296   1.401400   0.000000
    11  C    4.342800   2.427296   2.802800   2.427296   1.401400
    12  C    2.941400   1.401400   2.427296   2.802800   2.427296
    13  H    3.396345   2.736837   2.578650   3.918930   4.990735
    14  H    2.146700   4.693509   5.919617   7.118798   7.300676
    15  H    1.070000   2.736837   4.127917   5.074276   4.990735
    16  H    4.127917   2.146700   1.070000   2.146700   3.396345
    17  H    5.919617   3.396345   2.146700   1.070000   2.146700
    18  H    6.232802   3.872800   3.396345   2.146700   1.070000
    19  H    4.965039   3.396345   3.872800   3.396345   2.146700
    20  H    2.578650   2.146700   3.396345   3.872800   3.396345
    21  Cl   4.562800   5.286324   5.440665   6.797295   7.819846
    22  Cl   4.048303   6.102800   6.910901   8.294174   8.905600
                   11         12         13         14         15
    11  C    0.000000
    12  C    1.401400   0.000000
    13  H    5.074276   4.127917   0.000000
    14  H    6.347206   4.965039   4.942800   0.000000
    15  H    3.918930   2.578650   4.280590   2.471400   0.000000
    16  H    3.872800   3.396345   1.871400   6.097816   4.671787
    17  H    3.396345   3.872800   4.342800   8.047159   6.097816
    18  H    2.146700   3.396345   5.974992   8.329571   5.974992
    19  H    1.070000   2.146700   6.097816   6.814200   4.342800
    20  H    2.146700   1.070000   4.671787   4.342800   1.871400
    21  Cl   7.713260   6.549198   2.879094   4.890332   5.632800
    22  Cl   8.294174   6.910901   4.890332   2.879094   4.890332
                   16         17         18         19         20
    16  H    0.000000
    17  H    2.471400   0.000000
    18  H    4.280590   2.471400   0.000000
    19  H    4.942800   4.280590   2.471400   0.000000
    20  H    4.280590   4.942800   4.280590   2.471400   0.000000
    21  Cl   4.725732   7.184095   8.830073   8.663168   6.765486
    22  Cl   6.623817   8.998151   9.975600   8.998151   6.623817
                   21         22
    21  Cl   0.000000
    22  Cl   3.161400   0.000000
 Stoichiometry    C12H8Cl2
 Framework group  C1[X(C12H8Cl2)]
 Deg. of freedom    60
 Full point group                 C1      NOp   1
 Largest Abelian subgroup         C1      NOp   1
 Largest concise Abelian subgroup C1      NOp   1
                         Standard orientation:                         
 ---------------------------------------------------------------------
 Center     Atomic      Atomic             Coordinates (Angstroms)
 Number     Number       Type             X           Y           Z
 ---------------------------------------------------------------------
      1          6           0       -0.562170   -0.316275    0.000002
      2          6           0        0.296452    0.791286    0.000001
      3          6           0        1.684938    0.601478    0.000001
      4          6           0        2.214804   -0.695890   -0.000000
      5          6           0        1.356182   -1.803451    0.000003
      6          6           0       -0.032304   -1.613644    0.000003
      7          6           0       -2.087979   -0.107695    0.000002
      8          6           0       -2.617844    1.189673    0.000003
      9          6           0       -4.006331    1.379480    0.000001
     10          6           0       -4.864952    0.271920   -0.000002
     11          6           0       -4.335087   -1.025449   -0.000003
     12          6           0       -2.946600   -1.215256   -0.000002
     13          1           0       -0.108112    1.781855   -0.000000
     14          1           0        1.760746   -2.794021    0.000004
     15          1           0       -0.687881   -2.459291    0.000004
     16          1           0       -1.962268    2.035320    0.000002
     17          1           0       -4.410895    2.370050    0.000002
     18          1           0       -5.925093    0.416842   -0.000004
     19          1           0       -4.990664   -1.871096   -0.000008
     20          1           0       -2.542037   -2.205826   -0.000004
     21         17           0        2.763270    1.992450   -0.000001
     22         17           0        3.958586   -0.934267   -0.000002
 ---------------------------------------------------------------------
 Rotational constants (GHZ):           1.3838866           0.2569306           0.2166986
 Standard basis: 6-311+G(d,p) (5D, 7F)
 There are   386 symmetry adapted cartesian basis functions of A   symmetry.
 There are   372 symmetry adapted basis functions of A   symmetry.
   372 basis functions,   602 primitive gaussians,   386 cartesian basis functions
    57 alpha electrons       57 beta electrons
       nuclear repulsion energy       957.3717117866 Hartrees.
 NAtoms=   22 NActive=   22 NUniq=   22 SFac= 1.00D+00 NAtFMM=   60 NAOKFM=F Big=F
 Integral buffers will be    131072 words long.
 Raffenetti 2 integral format.
 Two-electron integral symmetry is turned on.
 One-electron integrals computed using PRISM.
 NBasis=   372 RedAO= T EigKep=  1.40D-06  NBF=   372
 NBsUse=   368 1.00D-06 EigRej=  7.78D-07 NBFU=   368
 ExpMin= 4.38D-02 ExpMax= 1.06D+05 ExpMxC= 3.62D+03 IAcc=3 IRadAn=         5 AccDes= 0.00D+00
 Harris functional with IExCor=  402 and IRadAn=       5 diagonalized for initial guess.
 HarFok:  IExCor=  402 AccDes= 0.00D+00 IRadAn=         5 IDoV= 1 UseB2=F ITyADJ=14
 ICtDFT=  3500011 ScaDFX=  1.000000  1.000000  1.000000  1.000000
 FoFCou: FMM=F IPFlag=           0 FMFlag=      100000 FMFlg1=           0
         NFxFlg=           0 DoJE=T BraDBF=F KetDBF=T FulRan=T
         wScrn=  0.000000 ICntrl=       500 IOpCl=  0 I1Cent=   200000004 NGrid=           0
         NMat0=    1 NMatS0=      1 NMatT0=    0 NMatD0=    1 NMtDS0=    0 NMtDT0=    0
 Petite list used in FoFCou.
 Requested convergence on RMS density matrix=1.00D-08 within  32 cycles.
 Requested convergence on MAX density matrix=1.00D-06.
 Requested convergence on             energy=1.00D-06.
 No special actions if energy rises.
 SCF Done:  E(RB3LYP) =  -1382.65555733     A.U. after   17 cycles
            NFock= 17  Conv=0.32D-08     -V/T= 2.0032
 QCSCF skips out because SCF is already converged.

 **********************************************************************

            Population analysis using the SCF Density.

 **********************************************************************

 Orbital symmetries:
       Occupied  (A) (A) (A) (A) (A) (A) (A) (A) (A) (A) (A) (A)
                 (A) (A) (A) (A) (A) (A) (A) (A) (A) (A) (A) (A)
                 (A) (A) (A) (A) (A) (A) (A) (A) (A) (A) (A) (A)
                 (A) (A) (A) (A) (A) (A) (A) (A) (A) (A) (A) (A)
                 (A) (A) (A) (A) (A) (A) (A) (A) (A)
       Virtual   (A) (A) (A) (A) (A) (A) (A) (A) (A) (A) (A) (A)
                 (A) (A) (A) (A) (A) (A) (A) (A) (A) (A) (A) (A)
                 (A) (A) (A) (A) (A) (A) (A) (A) (A) (A) (A) (A)
                 (A) (A) (A) (A) (A) (A) (A) (A) (A) (A) (A) (A)
                 (A) (A) (A) (A) (A) (A) (A) (A) (A) (A) (A) (A)
                 (A) (A) (A) (A) (A) (A) (A) (A) (A) (A) (A) (A)
                 (A) (A) (A) (A) (A) (A) (A) (A) (A) (A) (A) (A)
                 (A) (A) (A) (A) (A) (A) (A) (A) (A) (A) (A) (A)
                 (A) (A) (A) (A) (A) (A) (A) (A) (A) (A) (A) (A)
                 (A) (A) (A) (A) (A) (A) (A) (A) (A) (A) (A) (A)
                 (A) (A) (A) (A) (A) (A) (A) (A) (A) (A) (A) (A)
                 (A) (A) (A) (A) (A) (A) (A) (A) (A) (A) (A) (A)
                 (A) (A) (A) (A) (A) (A) (A) (A) (A) (A) (A) (A)
                 (A) (A) (A) (A) (A) (A) (A) (A) (A) (A) (A) (A)
                 (A) (A) (A) (A) (A) (A) (A) (A) (A) (A) (A) (A)
                 (A) (A) (A) (A) (A) (A) (A) (A) (A) (A) (A) (A)
                 (A) (A) (A) (A) (A) (A) (A) (A) (A) (A) (A) (A)
                 (A) (A) (A) (A) (A) (A) (A) (A) (A) (A) (A) (A)
                 (A) (A) (A) (A) (A) (A) (A) (A) (A) (A) (A) (A)
                 (A) (A) (A) (A) (A) (A) (A) (A) (A) (A) (A) (A)
                 (A) (A) (A) (A) (A) (A) (A) (A) (A) (A) (A) (A)
                 (A) (A) (A) (A) (A) (A) (A) (A) (A) (A) (A) (A)
                 (A) (A) (A) (A) (A) (A) (A) (A) (A) (A) (A) (A)
                 (A) (A) (A) (A) (A) (A) (A) (A) (A) (A) (A) (A)
                 (A) (A) (A) (A) (A) (A) (A) (A) (A) (A) (A) (A)
                 (A) (A) (A) (A) (A) (A) (A) (A) (A) (A) (A)
 The electronic state is 1-A.
 Alpha  occ. eigenvalues -- -101.56455-101.56345 -10.26091 -10.25821 -10.21474
 Alpha  occ. eigenvalues --  -10.20701 -10.20697 -10.20475 -10.19996 -10.19104
 Alpha  occ. eigenvalues --  -10.19085 -10.19052 -10.19030 -10.18847  -9.47892
 Alpha  occ. eigenvalues --   -9.47781  -7.24375  -7.24264  -7.23376  -7.23319
 Alpha  occ. eigenvalues --   -7.23263  -7.23209  -0.92344  -0.87839  -0.86323
 Alpha  occ. eigenvalues --   -0.84923  -0.78407  -0.76879  -0.75774  -0.73112
 Alpha  occ. eigenvalues --   -0.65057  -0.63726  -0.61487  -0.59379  -0.55337
 Alpha  occ. eigenvalues --   -0.51124  -0.50478  -0.49698  -0.46494  -0.45951
 Alpha  occ. eigenvalues --   -0.45841  -0.44420  -0.43629  -0.42843  -0.39750
 Alpha  occ. eigenvalues --   -0.39630  -0.39096  -0.36263  -0.35980  -0.35348
 Alpha  occ. eigenvalues --   -0.34840  -0.33756  -0.31344  -0.29080  -0.27366
 Alpha  occ. eigenvalues --   -0.26748  -0.24083
 Alpha virt. eigenvalues --   -0.06230  -0.04974  -0.02300  -0.01756  -0.00405
 Alpha virt. eigenvalues --    0.00081   0.00772   0.01136   0.02416   0.03088
 Alpha virt. eigenvalues --    0.03282   0.04237   0.04472   0.05476   0.05567
 Alpha virt. eigenvalues --    0.06427   0.06799   0.07041   0.07797   0.07999
 Alpha virt. eigenvalues --    0.08422   0.09103   0.10250   0.10602   0.10904
 Alpha virt. eigenvalues --    0.11040   0.11789   0.11965   0.12296   0.13271
 Alpha virt. eigenvalues --    0.13917   0.14101   0.14330   0.15171   0.15374
 Alpha virt. eigenvalues --    0.15518   0.15967   0.16117   0.16647   0.16915
 Alpha virt. eigenvalues --    0.17551   0.18266   0.18402   0.18581   0.19305
 Alpha virt. eigenvalues --    0.19422   0.20054   0.20264   0.20284   0.20884
 Alpha virt. eigenvalues --    0.21305   0.21801   0.22127   0.22634   0.23197
 Alpha virt. eigenvalues --    0.23756   0.24169   0.24434   0.25183   0.25937
 Alpha virt. eigenvalues --    0.26351   0.26547   0.27869   0.28356   0.29047
 Alpha virt. eigenvalues --    0.29579   0.29888   0.30638   0.31122   0.33007
 Alpha virt. eigenvalues --    0.33655   0.33864   0.34607   0.34909   0.37439
 Alpha virt. eigenvalues --    0.38522   0.38554   0.43428   0.43945   0.44552
 Alpha virt. eigenvalues --    0.45691   0.46266   0.47438   0.47958   0.48304
 Alpha virt. eigenvalues --    0.49326   0.51511   0.51584   0.51805   0.52391
 Alpha virt. eigenvalues --    0.53931   0.54038   0.54564   0.54780   0.54823
 Alpha virt. eigenvalues --    0.56590   0.56896   0.57898   0.58685   0.60223
 Alpha virt. eigenvalues --    0.60801   0.61444   0.61681   0.62904   0.63979
 Alpha virt. eigenvalues --    0.65258   0.65416   0.65943   0.66556   0.67148
 Alpha virt. eigenvalues --    0.67819   0.68331   0.70069   0.71052   0.72367
 Alpha virt. eigenvalues --    0.73800   0.74754   0.77003   0.78429   0.78922
 Alpha virt. eigenvalues --    0.81113   0.81794   0.82299   0.83439   0.83837
 Alpha virt. eigenvalues --    0.85393   0.85525   0.85867   0.85949   0.87154
 Alpha virt. eigenvalues --    0.88135   0.88750   0.88872   0.89993   0.90065
 Alpha virt. eigenvalues --    0.91247   0.92405   0.93391   0.94132   0.94175
 Alpha virt. eigenvalues --    0.94831   0.95152   0.96416   0.96914   0.99170
 Alpha virt. eigenvalues --    1.00452   1.02286   1.02771   1.04618   1.06338
 Alpha virt. eigenvalues --    1.06462   1.07148   1.08737   1.08746   1.10614
 Alpha virt. eigenvalues --    1.11517   1.13300   1.15659   1.18659   1.24953
 Alpha virt. eigenvalues --    1.25922   1.26251   1.28124   1.29162   1.31640
 Alpha virt. eigenvalues --    1.34112   1.34376   1.44803   1.45797   1.45884
 Alpha virt. eigenvalues --    1.48375   1.49486   1.51722   1.52871   1.55030
 Alpha virt. eigenvalues --    1.55420   1.55486   1.55725   1.55965   1.60276
 Alpha virt. eigenvalues --    1.61877   1.63224   1.63752   1.67264   1.68216
 Alpha virt. eigenvalues --    1.68579   1.70507   1.74070   1.74235   1.76823
 Alpha virt. eigenvalues --    1.78287   1.79287   1.83987   1.84000   1.84504
 Alpha virt. eigenvalues --    1.85630   1.86705   1.88692   1.91071   1.92750
 Alpha virt. eigenvalues --    1.93794   1.94359   1.94525   1.95703   1.96172
 Alpha virt. eigenvalues --    1.97330   1.99061   1.99814   2.01394   2.04859
 Alpha virt. eigenvalues --    2.05501   2.07871   2.10395   2.14658   2.18905
 Alpha virt. eigenvalues --    2.22569   2.24466   2.26339   2.26903   2.28002
 Alpha virt. eigenvalues --    2.29326   2.29747   2.34691   2.35930   2.36693
 Alpha virt. eigenvalues --    2.39583   2.41253   2.42843   2.44125   2.44841
 Alpha virt. eigenvalues --    2.47634   2.52136   2.53581   2.59441   2.60298
 Alpha virt. eigenvalues --    2.61830   2.62846   2.64703   2.65476   2.68182
 Alpha virt. eigenvalues --    2.69448   2.69594   2.71765   2.72449   2.73131
 Alpha virt. eigenvalues --    2.74073   2.74836   2.75522   2.77544   2.79526
 Alpha virt. eigenvalues --    2.81220   2.82329   2.82807   2.84633   2.84635
 Alpha virt. eigenvalues --    2.85847   2.92458   2.93121   2.93996   2.95453
 Alpha virt. eigenvalues --    3.06010   3.07202   3.08506   3.10090   3.14636
 Alpha virt. eigenvalues --    3.17158   3.20473   3.21932   3.32587   3.35659
 Alpha virt. eigenvalues --    3.37713   3.41178   3.49273   3.52059   3.53335
 Alpha virt. eigenvalues --    3.59152   3.62248   3.69438   3.75541   3.87521
 Alpha virt. eigenvalues --    4.00864   4.04580   4.09606   4.13062   4.17518
 Alpha virt. eigenvalues --    4.22436   4.48205   4.80293   4.84563   9.75246
 Alpha virt. eigenvalues --    9.80425  23.45634  23.65313  23.85618  23.89658
 Alpha virt. eigenvalues --   23.92807  23.95693  23.99135  24.04285  24.05487
 Alpha virt. eigenvalues --   24.07526  24.12323  24.16743  25.78447  25.86923
 Alpha virt. eigenvalues --   26.11452  26.17746  26.51284  26.75194 215.74095
 Alpha virt. eigenvalues --  215.79990
          Condensed to atoms (all electrons):
               1          2          3          4          5          6
     1  C   11.267981   1.113932  -1.550835  -2.831743  -1.520546  -0.320039
     2  C    1.113932  11.959739   3.669479  -4.540456  -2.045835  -2.028125
     3  C   -1.550835   3.669479  21.259955  -6.399584  -6.382961  -2.879276
     4  C   -2.831743  -4.540456  -6.399584  21.928592   1.525892  -2.033763
     5  C   -1.520546  -2.045835  -6.382961   1.525892  12.263218   2.777727
     6  C   -0.320039  -2.028125  -2.879276  -2.033763   2.777727  12.378215
     7  C    2.209618  -0.677564  -0.966083  -0.792118  -0.616302  -1.158480
     8  C   -0.443525   2.712982   0.096114   0.085796  -0.218214  -2.428393
     9  C   -0.988517  -0.830229   0.741025  -0.123398   0.044455  -0.503723
    10  C   -0.288663  -0.130678  -0.141438   0.037426   0.007803   0.112873
    11  C   -0.427920   0.032855   0.011521  -0.220975   0.019071  -1.143412
    12  C   -0.155156  -3.206684  -1.137384   0.316910   0.293959   3.276365
    13  H    0.020389   0.255082  -0.094815   0.027745  -0.000584  -0.016135
    14  H    0.037924  -0.016744   0.024365   0.035693   0.359108  -0.096877
    15  H    0.037961   0.001008  -0.021691  -0.025823  -0.083025   0.337186
    16  H    0.051039   0.040037  -0.024292  -0.008128   0.000571   0.024110
    17  H   -0.001499   0.009290   0.000825   0.000138  -0.000316  -0.001187
    18  H    0.002705   0.001245   0.000185   0.000004   0.000242   0.001312
    19  H   -0.002026  -0.001459  -0.000532   0.000274   0.000837   0.010292
    20  H    0.031276   0.020922   0.003212   0.001382  -0.004768   0.026204
    21  Cl  -0.495302   0.277907  -1.080491   0.073246   0.506300   0.193831
    22  Cl  -0.217135   0.175024   0.864788  -1.265557  -0.256761   0.033661
               7          8          9         10         11         12
     1  C    2.209618  -0.443525  -0.988517  -0.288663  -0.427920  -0.155156
     2  C   -0.677564   2.712982  -0.830229  -0.130678   0.032855  -3.206684
     3  C   -0.966083   0.096114   0.741025  -0.141438   0.011521  -1.137384
     4  C   -0.792118   0.085796  -0.123398   0.037426  -0.220975   0.316910
     5  C   -0.616302  -0.218214   0.044455   0.007803   0.019071   0.293959
     6  C   -1.158480  -2.428393  -0.503723   0.112873  -1.143412   3.276365
     7  C    8.103157  -1.164397   1.460587  -0.832734   1.035060  -1.474967
     8  C   -1.164397  14.750378  -5.893644   0.998213  -0.355470  -2.290396
     9  C    1.460587  -5.893644  13.002526  -0.651023   1.627340  -1.628088
    10  C   -0.832734   0.998213  -0.651023   5.840272   0.028286   0.821145
    11  C    1.035060  -0.355470   1.627340   0.028286   8.713009  -3.155774
    12  C   -1.474967  -2.290396  -1.628088   0.821145  -3.155774  14.462486
    13  H    0.073499  -0.002342   0.045909  -0.003033   0.004703   0.026106
    14  H   -0.000111  -0.000975   0.000135   0.000155   0.000097   0.012014
    15  H    0.055151   0.020096   0.008067  -0.004266   0.019449  -0.018808
    16  H   -0.007824   0.431453  -0.171422  -0.000198  -0.022067   0.008327
    17  H    0.015516  -0.017135   0.356732   0.003792  -0.017026   0.000151
    18  H    0.050092  -0.051888   0.019290   0.353209   0.017120  -0.042942
    19  H    0.000999   0.015965  -0.033950   0.023582   0.339797  -0.004446
    20  H    0.014316  -0.009457  -0.011818  -0.010979  -0.115795   0.376648
    21  Cl  -0.142607  -0.012073   0.033562  -0.006107  -0.000911  -0.086948
    22  Cl  -0.053333  -0.047931  -0.013183   0.000586  -0.007554  -0.004865
              13         14         15         16         17         18
     1  C    0.020389   0.037924   0.037961   0.051039  -0.001499   0.002705
     2  C    0.255082  -0.016744   0.001008   0.040037   0.009290   0.001245
     3  C   -0.094815   0.024365  -0.021691  -0.024292   0.000825   0.000185
     4  C    0.027745   0.035693  -0.025823  -0.008128   0.000138   0.000004
     5  C   -0.000584   0.359108  -0.083025   0.000571  -0.000316   0.000242
     6  C   -0.016135  -0.096877   0.337186   0.024110  -0.001187   0.001312
     7  C    0.073499  -0.000111   0.055151  -0.007824   0.015516   0.050092
     8  C   -0.002342  -0.000975   0.020096   0.431453  -0.017135  -0.051888
     9  C    0.045909   0.000135   0.008067  -0.171422   0.356732   0.019290
    10  C   -0.003033   0.000155  -0.004266  -0.000198   0.003792   0.353209
    11  C    0.004703   0.000097   0.019449  -0.022067  -0.017026   0.017120
    12  C    0.026106   0.012014  -0.018808   0.008327   0.000151  -0.042942
    13  H    0.533008   0.000078  -0.000080   0.003109  -0.000011  -0.000002
    14  H    0.000078   0.511321  -0.007285   0.000000   0.000000  -0.000000
    15  H   -0.000080  -0.007285   0.553144  -0.000103   0.000001  -0.000001
    16  H    0.003109   0.000000  -0.000103   0.561637  -0.007252  -0.000282
    17  H   -0.000011   0.000000   0.000001  -0.007252   0.536186  -0.007389
    18  H   -0.000002  -0.000000  -0.000001  -0.000282  -0.007389   0.536009
    19  H    0.000001   0.000000  -0.000007   0.000096  -0.000274  -0.007395
    20  H   -0.000101   0.000030   0.001904  -0.000091   0.000092  -0.000279
    21  Cl  -0.015569  -0.000552   0.000456  -0.000024   0.000005   0.000001
    22  Cl  -0.001560  -0.008516  -0.000814   0.000139  -0.000001   0.000000
              19         20         21         22
     1  C   -0.002026   0.031276  -0.495302  -0.217135
     2  C   -0.001459   0.020922   0.277907   0.175024
     3  C   -0.000532   0.003212  -1.080491   0.864788
     4  C    0.000274   0.001382   0.073246  -1.265557
     5  C    0.000837  -0.004768   0.506300  -0.256761
     6  C    0.010292   0.026204   0.193831   0.033661
     7  C    0.000999   0.014316  -0.142607  -0.053333
     8  C    0.015965  -0.009457  -0.012073  -0.047931
     9  C   -0.033950  -0.011818   0.033562  -0.013183
    10  C    0.023582  -0.010979  -0.006107   0.000586
    11  C    0.339797  -0.115795  -0.000911  -0.007554
    12  C   -0.004446   0.376648  -0.086948  -0.004865
    13  H    0.000001  -0.000101  -0.015569  -0.001560
    14  H    0.000000   0.000030  -0.000552  -0.008516
    15  H   -0.000007   0.001904   0.000456  -0.000814
    16  H    0.000096  -0.000091  -0.000024   0.000139
    17  H   -0.000274   0.000092   0.000005  -0.000001
    18  H   -0.007395  -0.000279   0.000001   0.000000
    19  H    0.537574  -0.007520  -0.000001   0.000000
    20  H   -0.007520   0.564765   0.000061  -0.000004
    21  Cl  -0.000001   0.000061  17.438541  -0.190065
    22  Cl   0.000000  -0.000004  -0.190065  17.487465
 Mulliken charges:
               1
     1  C    0.470080
     2  C   -0.791728
     3  C    0.007916
     4  C    0.208448
     5  C   -0.669869
     6  C   -0.562365
     7  C    0.868521
     8  C   -0.175157
     9  C   -0.490635
    10  C   -0.158222
    11  C   -0.381402
    12  C   -0.387653
    13  H    0.144604
    14  H    0.150140
    15  H    0.127480
    16  H    0.121165
    17  H    0.129360
    18  H    0.128765
    19  H    0.128194
    20  H    0.120002
    21  Cl   0.506741
    22  Cl   0.505617
 Sum of Mulliken charges =  -0.00000
 Mulliken charges with hydrogens summed into heavy atoms:
               1
     1  C    0.470080
     2  C   -0.647124
     3  C    0.007916
     4  C    0.208448
     5  C   -0.519729
     6  C   -0.434885
     7  C    0.868521
     8  C   -0.053992
     9  C   -0.361275
    10  C   -0.029457
    11  C   -0.253208
    12  C   -0.267651
    21  Cl   0.506741
    22  Cl   0.505617
 Electronic spatial extent (au):  <R**2>=           4557.9470
 Charge=              0.0000 electrons
 Dipole moment (field-independent basis, Debye):
    X=             -2.9993    Y=             -0.9508    Z=             -0.0000  Tot=              3.1464
 Quadrupole moment (field-independent basis, Debye-Ang):
   XX=            -93.7995   YY=            -86.4223   ZZ=           -101.2161
   XY=             -1.3672   XZ=              0.0000   YZ=              0.0000
 Traceless Quadrupole moment (field-independent basis, Debye-Ang):
   XX=              0.0132   YY=              7.3904   ZZ=             -7.4035
   XY=             -1.3672   XZ=              0.0000   YZ=              0.0000
 Octapole moment (field-independent basis, Debye-Ang**2):
  XXX=            -39.5931  YYY=             -4.4984  ZZZ=             -0.0000  XYY=             -5.2949
  XXY=              1.4759  XXZ=             -0.0002  XZZ=             21.8009  YZZ=              3.0345
  YYZ=             -0.0000  XYZ=             -0.0001
 Hexadecapole moment (field-independent basis, Debye-Ang**3):
 XXXX=          -4725.9498 YYYY=           -967.8549 ZZZZ=           -120.2891 XXXY=             12.0199
 XXXZ=              0.0010 YYYX=              3.2951 YYYZ=             -0.0000 ZZZX=             -0.0000
 ZZZY=             -0.0000 XXYY=           -949.8410 XXZZ=           -933.5754 YYZZ=           -208.0061
 XXYZ=              0.0002 YYXZ=              0.0001 ZZXY=              5.4046
 N-N= 9.573717117866D+02 E-N=-5.174054853105D+03  KE= 1.378294122672D+03
 Calling FoFJK, ICntrl=      2127 FMM=F ISym2X=0 I1Cent= 0 IOpClX= 0 NMat=1 NMatS=1 NMatT=0.
 ***** Axes restored to original set *****
 -------------------------------------------------------------------
 Center     Atomic                   Forces (Hartrees/Bohr)
 Number     Number              X              Y              Z
 -------------------------------------------------------------------
      1        6          -0.014469416   -0.024231478    0.000216022
      2        6          -0.003858925    0.018708677    0.004785119
      3        6          -0.002127525   -0.003272594    0.000086419
      4        6          -0.000696930    0.001510208    0.000513016
      5        6           0.004035759   -0.015752074   -0.004287930
      6        6           0.021548893    0.007917164   -0.005612419
      7        6           0.015626481    0.024513478   -0.000544225
      8        6          -0.018802729   -0.006952999    0.004888924
      9        6          -0.006306810    0.015281302    0.004947731
     10        6           0.007359171    0.012653421   -0.000048065
     11        6           0.016510673    0.001810921   -0.005099301
     12        6           0.003100737   -0.019423238   -0.004669518
     13        1           0.006513752   -0.002519050   -0.002619140
     14        1          -0.002426889    0.008266097    0.002352044
     15        1          -0.005771320    0.003836875    0.002621932
     16        1           0.006611251   -0.003178333   -0.002775159
     17        1           0.004527328   -0.008163248   -0.003024657
     18        1          -0.004942334   -0.008452870    0.000040710
     19        1          -0.009329300   -0.000022391    0.003069327
     20        1          -0.005877222    0.004165672    0.002718645
     21       17          -0.005258543   -0.004274192    0.000929713
     22       17          -0.005966103   -0.002421350    0.001510814
 -------------------------------------------------------------------
 Cartesian Forces:  Max     0.024513478 RMS     0.008900129

 GradGradGradGradGradGradGradGradGradGradGradGradGradGradGradGradGradGrad
 Berny optimization.
 FormGI is forming the generalized inverse of G from B-inverse, IUseBI=4.
 Internal  Forces:  Max     0.014840635 RMS     0.004565499
 Search for a local minimum.
 Step number   1 out of a maximum of  121
 All quantities printed in internal units (Hartrees-Bohrs-Radians)
 Mixed Optimization -- RFO/linear search
 Second derivative matrix not updated -- first step.
 ITU=  0
     Eigenvalues ---    0.00237   0.01506   0.01506   0.02070   0.02070
     Eigenvalues ---    0.02070   0.02070   0.02070   0.02070   0.02070
     Eigenvalues ---    0.02070   0.02070   0.02070   0.02070   0.02070
     Eigenvalues ---    0.02070   0.02070   0.02070   0.02070   0.16000
     Eigenvalues ---    0.16000   0.16000   0.16000   0.16000   0.16000
     Eigenvalues ---    0.16000   0.16000   0.22000   0.22000   0.22375
     Eigenvalues ---    0.23485   0.23491   0.24610   0.25000   0.25000
     Eigenvalues ---    0.25000   0.25000   0.28519   0.29539   0.29539
     Eigenvalues ---    0.37230   0.37230   0.37230   0.37230   0.37230
     Eigenvalues ---    0.37230   0.37230   0.37230   0.41268   0.41393
     Eigenvalues ---    0.41459   0.41697   0.45389   0.45389   0.45389
     Eigenvalues ---    0.45389   0.45389   0.45389   0.45389   0.45389
 RFO step:  Lambda=-7.50794004D-03 EMin= 2.36824111D-03
 Linear search not attempted -- first point.
 Iteration  1 RMS(Cart)=  0.02281117 RMS(Int)=  0.00034003
 Iteration  2 RMS(Cart)=  0.00040866 RMS(Int)=  0.00003695
 Iteration  3 RMS(Cart)=  0.00000005 RMS(Int)=  0.00003695
 Variable       Old X    -DE/DX   Delta X   Delta X   Delta X     New X
                                 (Linear)    (Quad)   (Total)
    R1        2.64826  -0.00146   0.00000  -0.00263  -0.00257   2.64569
    R2        2.64826   0.00060   0.00000   0.00158   0.00165   2.64991
    R3        2.91018  -0.01484   0.00000  -0.05070  -0.05070   2.85948
    R4        2.64826  -0.00985   0.00000  -0.02109  -0.02110   2.62716
    R5        2.02201   0.00582   0.00000   0.01533   0.01533   2.03733
    R6        2.64826  -0.00344   0.00000  -0.00773  -0.00780   2.64046
    R7        3.32592  -0.00538   0.00000  -0.01776  -0.01776   3.30816
    R8        2.64826  -0.01082   0.00000  -0.02398  -0.02404   2.62422
    R9        3.32592  -0.00511   0.00000  -0.01687  -0.01687   3.30905
   R10        2.64826  -0.01020   0.00000  -0.02236  -0.02235   2.62591
   R11        2.02201   0.00876   0.00000   0.02305   0.02305   2.04506
   R12        2.02201   0.00622   0.00000   0.01637   0.01637   2.03837
   R13        2.64826   0.00110   0.00000   0.00300   0.00305   2.65132
   R14        2.64826   0.00094   0.00000   0.00266   0.00271   2.65097
   R15        2.64826  -0.00768   0.00000  -0.01664  -0.01664   2.63162
   R16        2.02201   0.00708   0.00000   0.01863   0.01863   2.04064
   R17        2.64826  -0.00847   0.00000  -0.01896  -0.01901   2.62925
   R18        2.02201   0.00981   0.00000   0.02583   0.02583   2.04784
   R19        2.64826  -0.00848   0.00000  -0.01899  -0.01904   2.62922
   R20        2.02201   0.00979   0.00000   0.02578   0.02578   2.04779
   R21        2.64826  -0.00758   0.00000  -0.01644  -0.01644   2.63183
   R22        2.02201   0.00982   0.00000   0.02585   0.02585   2.04786
   R23        2.02201   0.00695   0.00000   0.01831   0.01831   2.04032
    A1        2.09440  -0.01142   0.00000  -0.04389  -0.04376   2.05063
    A2        2.09440   0.00418   0.00000   0.01600   0.01593   2.11033
    A3        2.09440   0.00724   0.00000   0.02789   0.02783   2.12223
    A4        2.09440   0.00536   0.00000   0.02399   0.02404   2.11843
    A5        2.09440   0.00203   0.00000   0.01615   0.01613   2.11052
    A6        2.09440  -0.00740   0.00000  -0.04014  -0.04016   2.05423
    A7        2.09440   0.00124   0.00000   0.00369   0.00362   2.09802
    A8        2.09440  -0.00765   0.00000  -0.02914  -0.02910   2.06529
    A9        2.09440   0.00641   0.00000   0.02545   0.02548   2.11988
   A10        2.09440  -0.00311   0.00000  -0.01464  -0.01476   2.07963
   A11        2.09440   0.00854   0.00000   0.03443   0.03450   2.12889
   A12        2.09440  -0.00543   0.00000  -0.01979  -0.01973   2.07466
   A13        2.09440   0.00209   0.00000   0.00636   0.00630   2.10070
   A14        2.09440  -0.00282   0.00000  -0.01377  -0.01374   2.08065
   A15        2.09440   0.00073   0.00000   0.00741   0.00744   2.10183
   A16        2.09440   0.00583   0.00000   0.02450   0.02457   2.11896
   A17        2.09440   0.00116   0.00000   0.01209   0.01206   2.10645
   A18        2.09440  -0.00699   0.00000  -0.03659  -0.03663   2.05777
   A19        2.09440   0.00575   0.00000   0.02162   0.02156   2.11596
   A20        2.09440   0.00528   0.00000   0.01977   0.01972   2.11411
   A21        2.09440  -0.01103   0.00000  -0.04139  -0.04128   2.05311
   A22        2.09440   0.00472   0.00000   0.02108   0.02113   2.11553
   A23        2.09440   0.00106   0.00000   0.00988   0.00985   2.10424
   A24        2.09440  -0.00578   0.00000  -0.03096  -0.03098   2.06341
   A25        2.09440   0.00179   0.00000   0.00570   0.00565   2.10004
   A26        2.09440  -0.00108   0.00000  -0.00397  -0.00394   2.09046
   A27        2.09440  -0.00071   0.00000  -0.00174  -0.00171   2.09269
   A28        2.09440  -0.00199   0.00000  -0.01216  -0.01227   2.08212
   A29        2.09440   0.00099   0.00000   0.00605   0.00611   2.10050
   A30        2.09440   0.00100   0.00000   0.00611   0.00617   2.10056
   A31        2.09440   0.00188   0.00000   0.00610   0.00605   2.10044
   A32        2.09440  -0.00075   0.00000  -0.00190  -0.00188   2.09252
   A33        2.09440  -0.00113   0.00000  -0.00420  -0.00417   2.09022
   A34        2.09440   0.00462   0.00000   0.02067   0.02073   2.11512
   A35        2.09440   0.00103   0.00000   0.00961   0.00959   2.10398
   A36        2.09440  -0.00565   0.00000  -0.03029  -0.03031   2.06408
    D1        0.00000  -0.00000   0.00000  -0.00000  -0.00000   0.00000
    D2        3.14159   0.00000   0.00000   0.00000   0.00000   3.14159
    D3       -3.14159  -0.00000   0.00000  -0.00000  -0.00000  -3.14159
    D4       -0.00000   0.00000   0.00000   0.00000   0.00000  -0.00000
    D5       -0.00000   0.00000   0.00000   0.00000   0.00000  -0.00000
    D6        3.14159   0.00000   0.00000  -0.00000  -0.00000   3.14159
    D7        3.14159   0.00000   0.00000   0.00000   0.00000   3.14159
    D8        0.00000  -0.00000   0.00000  -0.00000  -0.00000  -0.00000
    D9       -0.00000  -0.00000   0.00000  -0.00000  -0.00000  -0.00001
   D10        3.14159  -0.00000   0.00000  -0.00000  -0.00000   3.14159
   D11        3.14159  -0.00000   0.00000  -0.00000  -0.00000   3.14159
   D12       -0.00000  -0.00000   0.00000  -0.00000  -0.00000  -0.00001
   D13        0.00000  -0.00000   0.00000  -0.00000  -0.00000  -0.00000
   D14        3.14159   0.00000   0.00000   0.00000   0.00000  -3.14159
   D15       -3.14159  -0.00000   0.00000  -0.00000  -0.00000  -3.14159
   D16        0.00000  -0.00000   0.00000  -0.00000  -0.00000   0.00000
   D17       -0.00000   0.00000   0.00000   0.00000   0.00000  -0.00000
   D18        3.14159   0.00000   0.00000   0.00000   0.00000   3.14159
   D19        3.14159   0.00000   0.00000   0.00000   0.00000   3.14159
   D20        0.00000  -0.00000   0.00000  -0.00000  -0.00000  -0.00000
   D21        0.00000  -0.00000   0.00000  -0.00000  -0.00000   0.00000
   D22       -3.14159  -0.00000   0.00000  -0.00000  -0.00000  -3.14159
   D23       -3.14159   0.00000   0.00000  -0.00000  -0.00000  -3.14159
   D24        0.00000   0.00000   0.00000   0.00000   0.00000   0.00000
   D25       -0.00000   0.00000   0.00000   0.00000   0.00000   0.00000
   D26        3.14159   0.00000   0.00000   0.00000   0.00000  -3.14159
   D27        3.14159   0.00000   0.00000   0.00000   0.00000   3.14159
   D28       -0.00000   0.00000   0.00000   0.00000   0.00000  -0.00000
   D29        3.14159   0.00000   0.00000   0.00000   0.00000  -3.14159
   D30        0.00000  -0.00000   0.00000  -0.00000  -0.00000   0.00000
   D31        0.00000  -0.00000   0.00000  -0.00000  -0.00000   0.00000
   D32       -3.14159  -0.00000   0.00000  -0.00000  -0.00000  -3.14159
   D33       -3.14159  -0.00000   0.00000  -0.00000  -0.00000   3.14159
   D34        0.00000  -0.00000   0.00000  -0.00000  -0.00000  -0.00000
   D35       -0.00000   0.00000   0.00000   0.00000   0.00000   0.00000
   D36        3.14159   0.00000   0.00000   0.00000   0.00000   3.14159
   D37       -0.00000  -0.00000   0.00000   0.00000   0.00000  -0.00000
   D38        3.14159  -0.00000   0.00000  -0.00000  -0.00000   3.14159
   D39        3.14159   0.00000   0.00000   0.00000   0.00000   3.14159
   D40       -0.00000   0.00000   0.00000   0.00000   0.00000  -0.00000
   D41       -0.00000   0.00000   0.00000   0.00000   0.00000   0.00000
   D42       -3.14159  -0.00000   0.00000  -0.00000  -0.00000  -3.14159
   D43        3.14159   0.00000   0.00000   0.00000   0.00000  -3.14159
   D44        0.00000  -0.00000   0.00000  -0.00000  -0.00000   0.00000
   D45        0.00000   0.00000   0.00000   0.00000   0.00000   0.00000
   D46       -3.14159  -0.00000   0.00000  -0.00000  -0.00000  -3.14159
   D47        3.14159   0.00000   0.00000   0.00000   0.00000   3.14159
   D48        0.00000  -0.00000   0.00000  -0.00000  -0.00000   0.00000
   D49        0.00000  -0.00000   0.00000  -0.00000  -0.00000  -0.00000
   D50       -3.14159  -0.00000   0.00000  -0.00000  -0.00000  -3.14159
   D51        3.14159   0.00000   0.00000   0.00000   0.00000   3.14159
   D52       -0.00000   0.00000   0.00000   0.00000   0.00000  -0.00000
         Item               Value     Threshold  Converged?
 Maximum Force            0.014841     0.000450     NO 
 RMS     Force            0.004565     0.000300     NO 
 Maximum Displacement     0.106408     0.001800     NO 
 RMS     Displacement     0.022825     0.001200     NO 
 Predicted change in Energy=-3.853505D-03
 GradGradGradGradGradGradGradGradGradGradGradGradGradGradGradGradGradGrad

                          Input orientation:                          
 ---------------------------------------------------------------------
 Center     Atomic      Atomic             Coordinates (Angstroms)
 Number     Number       Type             X           Y           Z
 ---------------------------------------------------------------------
      1          6           0       -1.919013   -0.787477    0.095456
      2          6           0       -0.587271   -0.732588   -0.332983
      3          6           0        0.121545    0.463344   -0.341900
      4          6           0       -0.489934    1.646151    0.081695
      5          6           0       -1.810455    1.609325    0.509829
      6          6           0       -2.513522    0.410758    0.516357
      7          6           0       -2.680633   -2.094988    0.100814
      8          6           0       -2.078334   -3.289537   -0.321968
      9          6           0       -2.779748   -4.492578   -0.316825
     10          6           0       -4.102882   -4.532457    0.111603
     11          6           0       -4.717235   -3.357964    0.534589
     12          6           0       -4.015114   -2.155210    0.529160
     13          1           0       -0.076055   -1.620631   -0.668186
     14          1           0       -2.284983    2.524863    0.838109
     15          1           0       -3.536937    0.427735    0.856713
     16          1           0       -1.053178   -3.297521   -0.661213
     17          1           0       -2.291621   -5.401512   -0.648351
     18          1           0       -4.649090   -5.468364    0.115782
     19          1           0       -5.747429   -3.377936    0.870245
     20          1           0       -4.524621   -1.264268    0.864350
     21         17           0        1.782812    0.440413   -0.893517
     22         17           0        0.359013    3.177648    0.089634
 ---------------------------------------------------------------------
                    Distance matrix (angstroms):
                    1          2          3          4          5
     1  C    0.000000
     2  C    1.400039   0.000000
     3  C    2.433045   1.390235   0.000000
     4  C    2.822233   2.416575   1.397273   0.000000
     5  C    2.434779   2.773277   2.402361   1.388679   0.000000
     6  C    1.402271   2.395634   2.771814   2.410402   1.389571
     7  C    1.513169   2.535050   3.820113   4.335395   3.827067
     8  C    2.541639   2.959962   4.350170   5.200670   4.976192
     9  C    3.826045   4.352556   5.742760   6.563998   6.233466
    10  C    4.335254   5.195785   6.558161   7.157478   6.567747
    11  C    3.824956   4.970099   6.227714   6.566305   5.755340
    12  C    2.540164   3.810151   4.972677   5.203601   4.362639
    13  H    2.161895   1.078111   2.118598   3.377200   3.850776
    14  H    3.414244   3.855473   3.381370   2.136937   1.082200
    15  H    2.161927   3.385595   3.849991   3.371857   2.120666
    16  H    2.760895   2.627487   3.952979   5.030811   5.101171
    17  H    4.688433   4.980272   6.349316   7.310855   7.122130
    18  H    5.418896   6.255184   7.625850   8.241120   7.635889
    19  H    4.686955   5.922234   7.118257   7.314679   6.364153
    20  H    2.758210   4.149580   5.101622   5.036049   3.968617
    21  Cl   4.023592   2.703225   1.750604   2.751402   4.030794
    22  Cl   4.572926   4.045245   2.758634   1.751073   2.709759
                    6          7          8          9         10
     6  C    0.000000
     7  C    2.545460   0.000000
     8  C    3.818947   1.403016   0.000000
     9  C    4.980740   2.435710   1.392594   0.000000
    10  C    5.208192   2.822085   2.414877   1.391339   0.000000
    11  C    4.365770   2.435368   2.775278   2.401272   1.391323
    12  C    2.973068   1.402835   2.400465   2.775807   2.415235
    13  H    3.386876   2.756847   2.629493   3.959986   5.030124
    14  H    2.150627   4.695016   5.932599   7.129035   7.323820
    15  H    1.078661   2.769255   4.163522   5.114685   5.047671
    16  H    4.155793   2.162263   1.079859   2.127864   3.379794
    17  H    5.931970   3.412576   2.147663   1.083669   2.147895
    18  H    6.267789   3.905728   3.398190   2.152613   1.083643
    19  H    4.993756   3.412216   3.858944   3.385069   2.147788
    20  H    2.640328   2.161799   3.390190   3.855093   3.380171
    21  Cl   4.521848   5.228700   5.398856   6.744178   7.770528
    22  Cl   4.011138   6.086071   6.923478   8.297554   8.908126
                   11         12         13         14         15
    11  C    0.000000
    12  C    1.392703   0.000000
    13  H    5.099563   4.151578   0.000000
    14  H    6.373039   4.999189   4.932891   0.000000
    15  H    3.978490   2.647177   4.301026   2.442475   0.000000
    16  H    3.854725   3.390416   1.940820   6.137221   4.727652
    17  H    3.385120   3.859460   4.382258   8.064554   6.147857
    18  H    2.152633   3.398499   6.027628   8.366746   6.045646
    19  H    1.083681   2.147630   6.133464   6.843435   4.401089
    20  H    2.128240   1.079689   4.718623   4.401611   1.959196
    21  Cl   7.662752   6.509778   2.784612   4.887783   5.600285
    22  Cl   8.287370   6.911262   4.877197   2.824369   4.829996
                   16         17         18         19         20
    16  H    0.000000
    17  H    2.441450   0.000000
    18  H    4.271634   2.479118   0.000000
    19  H    4.938403   4.282943   2.479002   0.000000
    20  H    4.302601   4.938759   4.272033   2.441902   0.000000
    21  Cl   4.697762   7.126654   8.792138   8.625264   6.766074
    22  Cl   6.669773   9.009576   9.991761   8.992979   6.646855
                   21         22
    21  Cl   0.000000
    22  Cl   3.238247   0.000000
 Stoichiometry    C12H8Cl2
 Framework group  C1[X(C12H8Cl2)]
 Deg. of freedom    60
 Full point group                 C1      NOp   1
 Largest Abelian subgroup         C1      NOp   1
 Largest concise Abelian subgroup C1      NOp   1
                         Standard orientation:                         
 ---------------------------------------------------------------------
 Center     Atomic      Atomic             Coordinates (Angstroms)
 Number     Number       Type             X           Y           Z
 ---------------------------------------------------------------------
      1          6           0       -0.563845   -0.318675    0.000000
      2          6           0        0.307675    0.777026   -0.000001
      3          6           0        1.687185    0.604673   -0.000001
      4          6           0        2.235072   -0.680704    0.000001
      5          6           0        1.384707   -1.778570    0.000003
      6          6           0        0.006705   -1.599627    0.000002
      7          6           0       -2.063771   -0.118919   -0.000000
      8          6           0       -2.626582    1.166265    0.000004
      9          6           0       -4.007067    1.349510    0.000004
     10          6           0       -4.861454    0.251399    0.000000
     11          6           0       -4.321881   -1.031037   -0.000005
     12          6           0       -2.941182   -1.213495   -0.000004
     13          1           0       -0.071249    1.786352   -0.000003
     14          1           0        1.808033   -2.774537    0.000005
     15          1           0       -0.616613   -2.479958    0.000004
     16          1           0       -1.995124    2.042253    0.000007
     17          1           0       -4.416750    2.352753    0.000008
     18          1           0       -5.935740    0.393494   -0.000000
     19          1           0       -4.978414   -1.893202   -0.000009
     20          1           0       -2.558919   -2.223250   -0.000008
     21         17           0        2.702623    2.030682   -0.000003
     22         17           0        3.965106   -0.951327    0.000001
 ---------------------------------------------------------------------
 Rotational constants (GHZ):           1.3730562           0.2582373           0.2173577
 Standard basis: 6-311+G(d,p) (5D, 7F)
 There are   386 symmetry adapted cartesian basis functions of A   symmetry.
 There are   372 symmetry adapted basis functions of A   symmetry.
   372 basis functions,   602 primitive gaussians,   386 cartesian basis functions
    57 alpha electrons       57 beta electrons
       nuclear repulsion energy       958.9408052063 Hartrees.
 NAtoms=   22 NActive=   22 NUniq=   22 SFac= 1.00D+00 NAtFMM=   60 NAOKFM=F Big=F
 Integral buffers will be    131072 words long.
 Raffenetti 2 integral format.
 Two-electron integral symmetry is turned on.
 One-electron integrals computed using PRISM.
 NBasis=   372 RedAO= T EigKep=  1.32D-06  NBF=   372
 NBsUse=   368 1.00D-06 EigRej=  7.20D-07 NBFU=   368
 Initial guess from the checkpoint file:  "/scratch/pkc/Gau-3080.chk"
 B after Tr=    -0.000000    0.000000    0.000000
         Rot=    0.999996   -0.000000   -0.000000   -0.002790 Ang=  -0.32 deg.
 ExpMin= 4.38D-02 ExpMax= 1.06D+05 ExpMxC= 3.62D+03 IAcc=3 IRadAn=         5 AccDes= 0.00D+00
 Harris functional with IExCor=  402 and IRadAn=       5 diagonalized for initial guess.
 HarFok:  IExCor=  402 AccDes= 0.00D+00 IRadAn=         5 IDoV= 1 UseB2=F ITyADJ=14
 ICtDFT=  3500011 ScaDFX=  1.000000  1.000000  1.000000  1.000000
 FoFCou: FMM=F IPFlag=           0 FMFlag=      100000 FMFlg1=           0
         NFxFlg=           0 DoJE=T BraDBF=F KetDBF=T FulRan=T
         wScrn=  0.000000 ICntrl=       500 IOpCl=  0 I1Cent=   200000004 NGrid=           0
         NMat0=    1 NMatS0=      1 NMatT0=    0 NMatD0=    1 NMtDS0=    0 NMtDT0=    0
 Petite list used in FoFCou.
 Requested convergence on RMS density matrix=1.00D-08 within  32 cycles.
 Requested convergence on MAX density matrix=1.00D-06.
 Requested convergence on             energy=1.00D-06.
 No special actions if energy rises.
 SCF Done:  E(RB3LYP) =  -1382.65977017     A.U. after   14 cycles
            NFock= 14  Conv=0.92D-09     -V/T= 2.0031
 QCSCF skips out because SCF is already converged.
 Calling FoFJK, ICntrl=      2127 FMM=F ISym2X=0 I1Cent= 0 IOpClX= 0 NMat=1 NMatS=1 NMatT=0.
 ***** Axes restored to original set *****
 -------------------------------------------------------------------
 Center     Atomic                   Forces (Hartrees/Bohr)
 Number     Number              X              Y              Z
 -------------------------------------------------------------------
      1        6          -0.006693219   -0.010784903    0.000179616
      2        6          -0.001426435    0.002192698    0.000881786
      3        6           0.000913656    0.000362217   -0.000232990
      4        6           0.003905139    0.002368676   -0.000841707
      5        6          -0.002682005   -0.002503903    0.000413321
      6        6           0.002110385    0.001379881   -0.000436119
      7        6           0.006293348    0.010462759   -0.000108401
      8        6          -0.002181880   -0.001635582    0.000411684
      9        6           0.001007299    0.000977871   -0.000148231
     10        6          -0.000836009   -0.001325487    0.000026502
     11        6           0.000295490    0.001295982    0.000146068
     12        6          -0.000350201   -0.002685416   -0.000388969
     13        1           0.001247971   -0.000381340   -0.000482759
     14        1          -0.000108203    0.000123820    0.000058923
     15        1          -0.001403912    0.000343281    0.000526978
     16        1           0.001126272   -0.000416933   -0.000449415
     17        1           0.000665182    0.000031804   -0.000213154
     18        1          -0.000120333   -0.000198185    0.000002415
     19        1          -0.000317220    0.000573506    0.000212201
     20        1          -0.000816419    0.000996536    0.000456158
     21       17          -0.000419225    0.000528570    0.000237394
     22       17          -0.000209682   -0.001705852   -0.000251300
 -------------------------------------------------------------------
 Cartesian Forces:  Max     0.010784903 RMS     0.002444360

 GradGradGradGradGradGradGradGradGradGradGradGradGradGradGradGradGradGrad
 Berny optimization.
 Using GEDIIS/GDIIS optimizer.
 FormGI is forming the generalized inverse of G from B-inverse, IUseBI=4.
 Internal  Forces:  Max     0.009377924 RMS     0.001134044
 Search for a local minimum.
 Step number   2 out of a maximum of  121
 All quantities printed in internal units (Hartrees-Bohrs-Radians)
 Mixed Optimization -- RFO/linear search
 Update second derivatives using D2CorX and points    1    2
 DE= -4.21D-03 DEPred=-3.85D-03 R= 1.09D+00
 TightC=F SS=  1.41D+00  RLast= 1.63D-01 DXNew= 5.0454D-01 4.9002D-01
 Trust test= 1.09D+00 RLast= 1.63D-01 DXMaxT set to 4.90D-01
 ITU=  1  0
 Use linear search instead of GDIIS.
     Eigenvalues ---    0.00237   0.01480   0.01481   0.02070   0.02070
     Eigenvalues ---    0.02070   0.02070   0.02070   0.02070   0.02070
     Eigenvalues ---    0.02070   0.02070   0.02070   0.02070   0.02070
     Eigenvalues ---    0.02070   0.02070   0.02070   0.02070   0.15372
     Eigenvalues ---    0.16000   0.16000   0.16000   0.16000   0.16000
     Eigenvalues ---    0.16000   0.16112   0.20495   0.22001   0.22036
     Eigenvalues ---    0.22445   0.23475   0.24404   0.24980   0.25000
     Eigenvalues ---    0.25000   0.25498   0.27594   0.29520   0.29656
     Eigenvalues ---    0.36894   0.37230   0.37230   0.37230   0.37230
     Eigenvalues ---    0.37230   0.37230   0.37791   0.41140   0.41279
     Eigenvalues ---    0.41679   0.41791   0.45019   0.45389   0.45389
     Eigenvalues ---    0.45389   0.45389   0.45389   0.45389   0.49088
 RFO step:  Lambda=-4.93201256D-04 EMin= 2.36824110D-03
 Quartic linear search produced a step of  0.13609.
 Iteration  1 RMS(Cart)=  0.00647873 RMS(Int)=  0.00002189
 Iteration  2 RMS(Cart)=  0.00002574 RMS(Int)=  0.00000650
 Iteration  3 RMS(Cart)=  0.00000000 RMS(Int)=  0.00000650
 Variable       Old X    -DE/DX   Delta X   Delta X   Delta X     New X
                                 (Linear)    (Quad)   (Total)
    R1        2.64569   0.00145  -0.00035   0.00384   0.00350   2.64919
    R2        2.64991   0.00063   0.00022   0.00150   0.00174   2.65165
    R3        2.85948  -0.00938  -0.00690  -0.03349  -0.04039   2.81909
    R4        2.62716   0.00073  -0.00287   0.00335   0.00048   2.62765
    R5        2.03733   0.00106   0.00209   0.00208   0.00417   2.04150
    R6        2.64046  -0.00148  -0.00106  -0.00317  -0.00424   2.63623
    R7        3.30816  -0.00048  -0.00242  -0.00051  -0.00293   3.30523
    R8        2.62422   0.00268  -0.00327   0.00846   0.00518   2.62940
    R9        3.30905  -0.00159  -0.00230  -0.00486  -0.00716   3.30189
   R10        2.62591  -0.00073  -0.00304  -0.00015  -0.00320   2.62271
   R11        2.04506   0.00017   0.00314  -0.00119   0.00195   2.04701
   R12        2.03837   0.00150   0.00223   0.00337   0.00560   2.04397
   R13        2.65132   0.00104   0.00042   0.00232   0.00274   2.65406
   R14        2.65097   0.00102   0.00037   0.00227   0.00265   2.65363
   R15        2.63162  -0.00076  -0.00226  -0.00068  -0.00294   2.62868
   R16        2.04064   0.00121   0.00254   0.00232   0.00486   2.04549
   R17        2.62925   0.00121  -0.00259   0.00450   0.00190   2.63115
   R18        2.04784   0.00034   0.00352  -0.00088   0.00264   2.05047
   R19        2.62922   0.00110  -0.00259   0.00422   0.00162   2.63084
   R20        2.04779   0.00023   0.00351  -0.00120   0.00231   2.05010
   R21        2.63183  -0.00076  -0.00224  -0.00070  -0.00293   2.62889
   R22        2.04786   0.00036   0.00352  -0.00082   0.00269   2.05055
   R23        2.04032   0.00135   0.00249   0.00276   0.00525   2.04557
    A1        2.05063  -0.00178  -0.00596  -0.00496  -0.01090   2.03973
    A2        2.11033   0.00140   0.00217   0.00523   0.00739   2.11772
    A3        2.12223   0.00038   0.00379  -0.00027   0.00351   2.12573
    A4        2.11843   0.00147   0.00327   0.00541   0.00869   2.12712
    A5        2.11052   0.00019   0.00219   0.00163   0.00381   2.11434
    A6        2.05423  -0.00166  -0.00547  -0.00703  -0.01251   2.04173
    A7        2.09802   0.00002   0.00049  -0.00057  -0.00009   2.09793
    A8        2.06529   0.00087  -0.00396   0.00633   0.00237   2.06767
    A9        2.11988  -0.00089   0.00347  -0.00576  -0.00228   2.11759
   A10        2.07963  -0.00109  -0.00201  -0.00419  -0.00622   2.07341
   A11        2.12889  -0.00059   0.00469  -0.00512  -0.00041   2.12848
   A12        2.07466   0.00168  -0.00269   0.00931   0.00663   2.08129
   A13        2.10070   0.00098   0.00086   0.00430   0.00514   2.10584
   A14        2.08065  -0.00045  -0.00187  -0.00103  -0.00289   2.07776
   A15        2.10183  -0.00053   0.00101  -0.00327  -0.00225   2.09959
   A16        2.11896   0.00040   0.00334   0.00002   0.00337   2.12233
   A17        2.10645   0.00013   0.00164   0.00043   0.00206   2.10852
   A18        2.05777  -0.00053  -0.00498  -0.00045  -0.00544   2.05233
   A19        2.11596   0.00121   0.00293   0.00407   0.00700   2.12296
   A20        2.11411   0.00004   0.00268  -0.00112   0.00155   2.11567
   A21        2.05311  -0.00125  -0.00562  -0.00295  -0.00855   2.04456
   A22        2.11553   0.00071   0.00288   0.00178   0.00466   2.12019
   A23        2.10424   0.00007   0.00134   0.00051   0.00184   2.10609
   A24        2.06341  -0.00078  -0.00422  -0.00228  -0.00651   2.05691
   A25        2.10004   0.00030   0.00077   0.00117   0.00193   2.10198
   A26        2.09046  -0.00078  -0.00054  -0.00494  -0.00547   2.08499
   A27        2.09269   0.00048  -0.00023   0.00376   0.00353   2.09622
   A28        2.08212  -0.00081  -0.00167  -0.00303  -0.00472   2.07740
   A29        2.10050   0.00041   0.00083   0.00155   0.00239   2.10289
   A30        2.10056   0.00040   0.00084   0.00148   0.00233   2.10289
   A31        2.10044   0.00018   0.00082   0.00048   0.00129   2.10173
   A32        2.09252   0.00051  -0.00026   0.00394   0.00369   2.09621
   A33        2.09022  -0.00069  -0.00057  -0.00442  -0.00498   2.08524
   A34        2.11512   0.00086   0.00282   0.00256   0.00539   2.12051
   A35        2.10398  -0.00021   0.00130  -0.00127   0.00003   2.10401
   A36        2.06408  -0.00065  -0.00413  -0.00129  -0.00542   2.05866
    D1        0.00000  -0.00000  -0.00000  -0.00000  -0.00000  -0.00000
    D2        3.14159  -0.00000   0.00000  -0.00000  -0.00000   3.14159
    D3       -3.14159  -0.00000  -0.00000  -0.00000  -0.00000  -3.14159
    D4       -0.00000  -0.00000   0.00000  -0.00000  -0.00000  -0.00000
    D5       -0.00000   0.00000   0.00000   0.00000   0.00000   0.00000
    D6        3.14159  -0.00000  -0.00000  -0.00000  -0.00000   3.14159
    D7        3.14159   0.00000   0.00000   0.00000   0.00000   3.14159
    D8       -0.00000  -0.00000  -0.00000  -0.00000  -0.00000  -0.00000
    D9       -0.00001  -0.00000  -0.00000  -0.00001  -0.00001  -0.00002
   D10        3.14159  -0.00000  -0.00000  -0.00001  -0.00002   3.14157
   D11        3.14159  -0.00000  -0.00000  -0.00001  -0.00001   3.14157
   D12       -0.00001  -0.00000  -0.00000  -0.00001  -0.00001  -0.00002
   D13       -0.00000   0.00000  -0.00000   0.00000   0.00000   0.00000
   D14       -3.14159  -0.00000   0.00000  -0.00000  -0.00000   3.14159
   D15       -3.14159   0.00000  -0.00000   0.00000   0.00000  -3.14159
   D16        0.00000  -0.00000  -0.00000  -0.00000  -0.00000   0.00000
   D17       -0.00000   0.00000   0.00000   0.00000   0.00000  -0.00000
   D18        3.14159   0.00000   0.00000   0.00000   0.00000   3.14159
   D19        3.14159   0.00000   0.00000   0.00000   0.00000  -3.14159
   D20       -0.00000   0.00000  -0.00000   0.00000   0.00000   0.00000
   D21        0.00000  -0.00000  -0.00000   0.00000  -0.00000   0.00000
   D22       -3.14159  -0.00000  -0.00000  -0.00000  -0.00000  -3.14159
   D23       -3.14159  -0.00000  -0.00000  -0.00000  -0.00000  -3.14159
   D24        0.00000  -0.00000   0.00000  -0.00000  -0.00000   0.00000
   D25        0.00000  -0.00000   0.00000  -0.00000  -0.00000  -0.00000
   D26       -3.14159   0.00000   0.00000   0.00000   0.00000  -3.14159
   D27        3.14159   0.00000   0.00000   0.00000   0.00000   3.14159
   D28       -0.00000   0.00000   0.00000   0.00000   0.00000   0.00000
   D29       -3.14159  -0.00000   0.00000  -0.00000  -0.00000  -3.14159
   D30        0.00000  -0.00000  -0.00000  -0.00000  -0.00000  -0.00000
   D31        0.00000  -0.00000  -0.00000  -0.00000  -0.00000   0.00000
   D32       -3.14159  -0.00000  -0.00000  -0.00000  -0.00000   3.14159
   D33        3.14159   0.00000  -0.00000   0.00000   0.00000   3.14159
   D34       -0.00000  -0.00000  -0.00000  -0.00000  -0.00000  -0.00000
   D35       -0.00000   0.00000   0.00000  -0.00000  -0.00000  -0.00000
   D36        3.14159  -0.00000   0.00000  -0.00000  -0.00000   3.14159
   D37       -0.00000   0.00000   0.00000   0.00000   0.00000  -0.00000
   D38        3.14159   0.00000  -0.00000   0.00000   0.00000   3.14159
   D39        3.14159   0.00000   0.00000   0.00000   0.00000  -3.14159
   D40       -0.00000   0.00000   0.00000   0.00000   0.00000   0.00000
   D41       -0.00000   0.00000   0.00000  -0.00000   0.00000   0.00000
   D42       -3.14159  -0.00000  -0.00000  -0.00000  -0.00000   3.14159
   D43       -3.14159  -0.00000   0.00000  -0.00000  -0.00000  -3.14159
   D44        0.00000  -0.00000  -0.00000  -0.00000  -0.00000   0.00000
   D45        0.00000  -0.00000   0.00000  -0.00000  -0.00000   0.00000
   D46       -3.14159  -0.00000  -0.00000  -0.00000  -0.00000  -3.14159
   D47        3.14159   0.00000   0.00000  -0.00000   0.00000  -3.14159
   D48        0.00000  -0.00000  -0.00000  -0.00000  -0.00000   0.00000
   D49       -0.00000   0.00000  -0.00000   0.00000   0.00000  -0.00000
   D50       -3.14159   0.00000  -0.00000   0.00000   0.00000  -3.14159
   D51        3.14159   0.00000   0.00000   0.00000   0.00000   3.14159
   D52       -0.00000   0.00000   0.00000   0.00000   0.00000   0.00000
         Item               Value     Threshold  Converged?
 Maximum Force            0.009378     0.000450     NO 
 RMS     Force            0.001134     0.000300     NO 
 Maximum Displacement     0.027981     0.001800     NO 
 RMS     Displacement     0.006484     0.001200     NO 
 Predicted change in Energy=-3.095285D-04
 GradGradGradGradGradGradGradGradGradGradGradGradGradGradGradGradGradGrad

                          Input orientation:                          
 ---------------------------------------------------------------------
 Center     Atomic      Atomic             Coordinates (Angstroms)
 Number     Number       Type             X           Y           Z
 ---------------------------------------------------------------------
      1          6           0       -1.923644   -0.798784    0.094858
      2          6           0       -0.589986   -0.732406   -0.332045
      3          6           0        0.119419    0.463473   -0.341166
      4          6           0       -0.490704    1.644608    0.081658
      5          6           0       -1.814051    1.599635    0.509184
      6          6           0       -2.515416    0.402029    0.515332
      7          6           0       -2.673431   -2.088454    0.099668
      8          6           0       -2.077805   -3.288453   -0.321948
      9          6           0       -2.780055   -4.489200   -0.316100
     10          6           0       -4.104162   -4.529781    0.112528
     11          6           0       -4.713922   -3.351592    0.534705
     12          6           0       -4.009286   -2.152116    0.527831
     13          1           0       -0.066981   -1.615157   -0.670131
     14          1           0       -2.291779    2.514406    0.838368
     15          1           0       -3.541279    0.424036    0.857432
     16          1           0       -1.050780   -3.304925   -0.663413
     17          1           0       -2.287646   -5.397045   -0.648839
     18          1           0       -4.652647   -5.465768    0.117442
     19          1           0       -5.745117   -3.363129    0.872282
     20          1           0       -4.522317   -1.260326    0.864349
     21         17           0        1.779447    0.443941   -0.891725
     22         17           0        0.357456    3.172213    0.089125
 ---------------------------------------------------------------------
                    Distance matrix (angstroms):
                    1          2          3          4          5
     1  C    0.000000
     2  C    1.401890   0.000000
     3  C    2.440802   1.390491   0.000000
     4  C    2.832605   2.414788   1.395031   0.000000
     5  C    2.436409   2.764854   2.398388   1.391419   0.000000
     6  C    1.403191   2.390037   2.771232   2.414857   1.387880
     7  C    1.491796   2.523091   3.808764   4.324393   3.808969
     8  C    2.529021   2.957548   4.348002   5.197777   4.965255
     9  C    3.810709   4.348581   5.739037   6.559188   6.219982
    10  C    4.321495   5.192989   6.555690   7.154098   6.555280
[...]
 Alpha virt. eigenvalues --    0.15393   0.15775   0.16076   0.16576   0.16939
 Alpha virt. eigenvalues --    0.17297   0.18026   0.18241   0.18733   0.19308
 Alpha virt. eigenvalues --    0.19589   0.19635   0.20085   0.20382   0.20743
 Alpha virt. eigenvalues --    0.21456   0.22026   0.22087   0.22309   0.22935
 Alpha virt. eigenvalues --    0.22998   0.23981   0.24153   0.24912   0.25140
 Alpha virt. eigenvalues --    0.25343   0.25715   0.25784   0.27067   0.27354
 Alpha virt. eigenvalues --    0.28338   0.28448   0.29033   0.29449   0.30104
 Alpha virt. eigenvalues --    0.30203   0.30398   0.31002   0.31432   0.32583
 Alpha virt. eigenvalues --    0.33152   0.34519   0.35554   0.36719   0.42494
 Alpha virt. eigenvalues --    0.44021   0.44775   0.44807   0.46198   0.47527
 Alpha virt. eigenvalues --    0.47936   0.48555   0.50509   0.50625   0.51402
 Alpha virt. eigenvalues --    0.52678   0.52880   0.53172   0.53884   0.55434
 Alpha virt. eigenvalues --    0.56301   0.57447   0.57886   0.58169   0.59404
 Alpha virt. eigenvalues --    0.60205   0.60432   0.60786   0.61185   0.62832
 Alpha virt. eigenvalues --    0.64197   0.65111   0.65439   0.65978   0.67006
 Alpha virt. eigenvalues --    0.67497   0.67803   0.68756   0.69274   0.70067
 Alpha virt. eigenvalues --    0.70699   0.70883   0.71669   0.73716   0.75112
 Alpha virt. eigenvalues --    0.77010   0.77310   0.78811   0.80183   0.81209
 Alpha virt. eigenvalues --    0.81939   0.82491   0.82866   0.83984   0.84870
 Alpha virt. eigenvalues --    0.85412   0.85571   0.86381   0.86823   0.87063
 Alpha virt. eigenvalues --    0.88568   0.89112   0.89522   0.90076   0.91358
 Alpha virt. eigenvalues --    0.92741   0.92953   0.93215   0.94776   0.95983
 Alpha virt. eigenvalues --    0.96860   0.97827   0.99478   1.00436   1.01884
 Alpha virt. eigenvalues --    1.02662   1.05748   1.06225   1.07890   1.08286
 Alpha virt. eigenvalues --    1.10507   1.12187   1.12810   1.14480   1.16136
 Alpha virt. eigenvalues --    1.19098   1.25864   1.26538   1.28824   1.30555
 Alpha virt. eigenvalues --    1.30855   1.32437   1.33157   1.36120   1.45189
 Alpha virt. eigenvalues --    1.47451   1.48270   1.49908   1.50526   1.51314
 Alpha virt. eigenvalues --    1.52697   1.52967   1.55486   1.56093   1.56743
 Alpha virt. eigenvalues --    1.58757   1.60512   1.62309   1.64771   1.65507
 Alpha virt. eigenvalues --    1.66403   1.69134   1.70538   1.72473   1.73029
 Alpha virt. eigenvalues --    1.73857   1.75664   1.76695   1.78300   1.81396
 Alpha virt. eigenvalues --    1.82828   1.85716   1.86778   1.89366   1.90336
 Alpha virt. eigenvalues --    1.91550   1.92212   1.92858   1.93431   1.94757
 Alpha virt. eigenvalues --    1.95710   1.96571   1.97933   1.99057   2.00577
 Alpha virt. eigenvalues --    2.01182   2.02755   2.06385   2.07530   2.09039
 Alpha virt. eigenvalues --    2.13149   2.19250   2.20949   2.24487   2.25615
 Alpha virt. eigenvalues --    2.27052   2.29115   2.30037   2.32087   2.34257
 Alpha virt. eigenvalues --    2.38191   2.38423   2.40345   2.40922   2.41758
 Alpha virt. eigenvalues --    2.41922   2.45161   2.49733   2.51790   2.56025
 Alpha virt. eigenvalues --    2.60425   2.61850   2.62562   2.64774   2.65483
 Alpha virt. eigenvalues --    2.66692   2.68699   2.70248   2.71306   2.72476
 Alpha virt. eigenvalues --    2.73095   2.74813   2.76252   2.76809   2.78245
 Alpha virt. eigenvalues --    2.78885   2.79690   2.81445   2.82129   2.82700
 Alpha virt. eigenvalues --    2.84865   2.85728   2.86911   2.90896   2.92132
 Alpha virt. eigenvalues --    2.92304   2.98353   3.02902   3.07161   3.09170
 Alpha virt. eigenvalues --    3.13637   3.15481   3.18712   3.19000   3.23117
 Alpha virt. eigenvalues --    3.33611   3.35765   3.36464   3.42178   3.48606
 Alpha virt. eigenvalues --    3.51126   3.52007   3.60449   3.62601   3.70470
 Alpha virt. eigenvalues --    3.78858   3.86679   3.97839   4.02914   4.07582
 Alpha virt. eigenvalues --    4.12184   4.14996   4.15501   4.44781   4.80966
 Alpha virt. eigenvalues --    4.84423   9.76181   9.80283  23.45667  23.66207
 Alpha virt. eigenvalues --   23.89392  23.90048  23.94008  23.94808  24.00018
 Alpha virt. eigenvalues --   24.05137  24.07152  24.08787  24.14342  24.18376
 Alpha virt. eigenvalues --   25.78856  25.87278  26.08293  26.18326  26.50175
 Alpha virt. eigenvalues --   26.76084 215.75145 215.79796
          Condensed to atoms (all electrons):
               1          2          3          4          5          6
     1  C   23.236584  -0.616651  -3.345607  -5.104639  -1.320699  -3.378512
     2  C   -0.616651  23.127869   2.379876  -5.543578   0.728740 -13.588750
     3  C   -3.345607   2.379876  20.916692  -4.667761  -7.195060  -1.830209
     4  C   -5.104639  -5.543578  -4.667761  22.217618   0.260196  -0.327471
     5  C   -1.320699   0.728740  -7.195060   0.260196  14.448413  -0.972272
     6  C   -3.378512 -13.588750  -1.830209  -0.327471  -0.972272  25.246364
     7  C   -2.008720  -1.176734  -0.044553   0.232428   0.491388   0.145170
     8  C   -1.692850   2.026892   0.226323  -0.371409   0.216977  -1.428755
     9  C    1.513784  -0.020419  -0.247291  -0.033179   0.024860   0.252316
    10  C   -0.751620   0.110601   0.090459  -0.017581  -0.034429  -0.087615
    11  C    1.157273  -0.132759  -0.117008   0.069794   0.086723   0.234466
    12  C   -2.303182  -1.070226   0.410565   0.267579  -0.370205   1.645045
    13  H   -0.019660   0.272721  -0.009815   0.039097  -0.025178   0.038149
    14  H   -0.011871  -0.043544   0.054604   0.041018   0.323025  -0.022801
    15  H    0.012461   0.019070  -0.011864  -0.000704  -0.017461   0.326764
    16  H    0.001727   0.091777  -0.008183  -0.002858   0.001733  -0.040885
    17  H   -0.003593   0.002265   0.000528  -0.000018  -0.000333  -0.001769
    18  H    0.009033  -0.000837  -0.000289   0.000030  -0.000008  -0.000256
    19  H   -0.002382  -0.001809  -0.000286  -0.000055   0.000513   0.001748
    20  H   -0.027536  -0.048520  -0.009158   0.008166   0.007382   0.099075
    21  Cl  -0.455596   0.372762  -0.891784  -0.120070   0.247101   0.219365
    22  Cl   0.095283   0.077599   0.227492  -1.054377   0.000649   0.101884
               7          8          9         10         11         12
     1  C   -2.008720  -1.692850   1.513784  -0.751620   1.157273  -2.303182
     2  C   -1.176734   2.026892  -0.020419   0.110601  -0.132759  -1.070226
     3  C   -0.044553   0.226323  -0.247291   0.090459  -0.117008   0.410565
     4  C    0.232428  -0.371409  -0.033179  -0.017581   0.069794   0.267579
     5  C    0.491388   0.216977   0.024860  -0.034429   0.086723  -0.370205
     6  C    0.145170  -1.428755   0.252316  -0.087615   0.234466   1.645045
     7  C   12.267548  -1.113251  -0.995972  -0.890841  -0.744293  -1.282345
     8  C   -1.113251  16.964570  -2.019096   1.128747  -1.642170  -5.877358
     9  C   -0.995972  -2.019096   8.317711  -0.530117   1.224461  -1.772410
    10  C   -0.890841   1.128747  -0.530117   6.234571  -0.588919   1.323743
    11  C   -0.744293  -1.642170   1.224461  -0.588919   7.712384  -1.551740
    12  C   -1.282345  -5.877358  -1.772410   1.323743  -1.551740  17.018213
    13  H    0.000963   0.078192  -0.016581   0.006217  -0.008983  -0.008453
    14  H    0.008734  -0.000545  -0.000428   0.000139  -0.000434   0.001165
    15  H   -0.025373  -0.021927  -0.004789   0.003121  -0.005944   0.072653
    16  H   -0.006866   0.332700   0.002014  -0.010098   0.002730  -0.020691
    17  H    0.028730  -0.053081   0.404369  -0.014851  -0.000502  -0.012491
    18  H    0.033201  -0.049571   0.029467   0.350837   0.029492  -0.051074
    19  H    0.030331  -0.013999   0.001616  -0.016313   0.410856  -0.061301
    20  H    0.007753  -0.012157  -0.001056  -0.007058   0.002273   0.324189
    21  Cl  -0.108886   0.039366   0.026946  -0.002363   0.002194  -0.035096
    22  Cl  -0.062747  -0.011808   0.005983  -0.002171   0.005969  -0.008768
              13         14         15         16         17         18
     1  C   -0.019660  -0.011871   0.012461   0.001727  -0.003593   0.009033
     2  C    0.272721  -0.043544   0.019070   0.091777   0.002265  -0.000837
     3  C   -0.009815   0.054604  -0.011864  -0.008183   0.000528  -0.000289
     4  C    0.039097   0.041018  -0.000704  -0.002858  -0.000018   0.000030
     5  C   -0.025178   0.323025  -0.017461   0.001733  -0.000333  -0.000008
     6  C    0.038149  -0.022801   0.326764  -0.040885  -0.001769  -0.000256
     7  C    0.000963   0.008734  -0.025373  -0.006866   0.028730   0.033201
     8  C    0.078192  -0.000545  -0.021927   0.332700  -0.053081  -0.049571
     9  C   -0.016581  -0.000428  -0.004789   0.002014   0.404369   0.029467
    10  C    0.006217   0.000139   0.003121  -0.010098  -0.014851   0.350837
    11  C   -0.008983  -0.000434  -0.005944   0.002730  -0.000502   0.029492
    12  C   -0.008453   0.001165   0.072653  -0.020691  -0.012491  -0.051074
    13  H    0.507377   0.000060  -0.000260  -0.000622   0.000037  -0.000000
    14  H    0.000060   0.512487  -0.007494  -0.000000   0.000000  -0.000000
    15  H   -0.000260  -0.007494   0.527578   0.000003   0.000001   0.000001
    16  H   -0.000622  -0.000000   0.000003   0.536563  -0.007506  -0.000250
    17  H    0.000037   0.000000   0.000001  -0.007506   0.537360  -0.007827
    18  H   -0.000000  -0.000000   0.000001  -0.000250  -0.007827   0.536670
    19  H    0.000002   0.000000   0.000031   0.000080  -0.000279  -0.007808
    20  H   -0.000000   0.000044  -0.000514  -0.000243   0.000079  -0.000255
    21  Cl  -0.005312   0.000270   0.000375   0.000141   0.000002   0.000000
    22  Cl   0.000052  -0.006643  -0.000005  -0.000025  -0.000001   0.000000
              19         20         21         22
     1  C   -0.002382  -0.027536  -0.455596   0.095283
     2  C   -0.001809  -0.048520   0.372762   0.077599
     3  C   -0.000286  -0.009158  -0.891784   0.227492
     4  C   -0.000055   0.008166  -0.120070  -1.054377
     5  C    0.000513   0.007382   0.247101   0.000649
     6  C    0.001748   0.099075   0.219365   0.101884
     7  C    0.030331   0.007753  -0.108886  -0.062747
     8  C   -0.013999  -0.012157   0.039366  -0.011808
     9  C    0.001616  -0.001056   0.026946   0.005983
    10  C   -0.016313  -0.007058  -0.002363  -0.002171
    11  C    0.410856   0.002273   0.002194   0.005969
    12  C   -0.061301   0.324189  -0.035096  -0.008768
    13  H    0.000002  -0.000000  -0.005312   0.000052
    14  H    0.000000   0.000044   0.000270  -0.006643
    15  H    0.000031  -0.000514   0.000375  -0.000005
    16  H    0.000080  -0.000243   0.000141  -0.000025
    17  H   -0.000279   0.000079   0.000002  -0.000001
    18  H   -0.007808  -0.000255   0.000000   0.000000
    19  H    0.537921  -0.007450  -0.000001  -0.000001
    20  H   -0.007450   0.539321  -0.000165   0.000011
    21  Cl  -0.000001  -0.000165  17.369447  -0.145005
    22  Cl  -0.000001   0.000011  -0.145005  17.308768
 Mulliken charges:
               1
     1  C    1.016974
     2  C   -0.966346
     3  C    0.072331
     4  C    0.107774
     5  C   -0.902056
     6  C   -0.631049
     7  C    1.214337
     8  C   -0.705792
     9  C   -0.162189
    10  C   -0.294458
    11  C   -0.145863
    12  C   -0.637814
    13  H    0.151997
    14  H    0.152213
    15  H    0.134278
    16  H    0.128760
    17  H    0.128879
    18  H    0.129444
    19  H    0.128587
    20  H    0.125821
    21  Cl   0.486309
    22  Cl   0.467862
 Sum of Mulliken charges =  -0.00000
 Mulliken charges with hydrogens summed into heavy atoms:
               1
     1  C    1.016974
     2  C   -0.814348
     3  C    0.072331
     4  C    0.107774
     5  C   -0.749842
     6  C   -0.496772
     7  C    1.214337
     8  C   -0.577032
     9  C   -0.033309
    10  C   -0.165014
    11  C   -0.017276
    12  C   -0.511994
    21  Cl   0.486309
    22  Cl   0.467862
 Electronic spatial extent (au):  <R**2>=           4503.7911
 Charge=             -0.0000 electrons
 Dipole moment (field-independent basis, Debye):
    X=             -2.8570    Y=             -0.9478    Z=              0.1730  Tot=              3.0151
 Quadrupole moment (field-independent basis, Debye-Ang):
   XX=            -94.0143   YY=            -89.0706   ZZ=            -98.4740
   XY=             -1.8393   XZ=              0.7849   YZ=              2.4863
 Traceless Quadrupole moment (field-independent basis, Debye-Ang):
   XX=             -0.1613   YY=              4.7824   ZZ=             -4.6211
   XY=             -1.8393   XZ=              0.7849   YZ=              2.4863
 Octapole moment (field-independent basis, Debye-Ang**2):
  XXX=            -35.5660  YYY=             -3.9601  ZZZ=             -1.6262  XYY=              3.6558
  XXY=              2.9213  XXZ=             -3.9486  XZZ=             13.3851  YZZ=              2.8472
  YYZ=              2.4603  XYZ=            -13.3519
 Hexadecapole moment (field-independent basis, Debye-Ang**3):
 XXXX=          -4668.2974 YYYY=           -914.1228 ZZZZ=           -213.5470 XXXY=             -8.8080
 XXXZ=             22.7036 YYYX=              4.5488 YYYZ=             -0.0654 ZZZX=             -1.5536
 ZZZY=              2.0438 XXYY=           -957.7096 XXZZ=           -899.2869 YYZZ=           -193.4912
 XXYZ=             48.0475 YYXZ=             -1.9769 ZZXY=              5.4207
 N-N= 9.604801616095D+02 E-N=-5.180461573834D+03  KE= 1.378415814646D+03
 1\1\GINC-DAMODAR\FOpt\RB3LYP\6-311+G(d,p)\C12H8Cl2\PKC\14-Mar-2022\0\\
 # opt b3lyp/6-311+g(d,p) scf=xqc\\Title Card Required\\0,1\C,-1.928646
 8318,-0.8001706364,0.0871797227\C,-0.5298974127,-0.7894977982,0.051107
 0361\C,0.1818986339,0.4069151232,0.0405940194\C,-0.4989363705,1.626723
 4574,0.0698148368\C,-1.8921188906,1.6278069648,0.1075566755\C,-2.59721
 97066,0.4318103952,0.1162738668\C,-2.6760669332,-2.0831203853,0.093253
 634\C,-2.2709156192,-3.15630809,-0.7137355844\C,-2.9735039442,-4.35820
 94551,-0.7079151373\C,-4.0954003591,-4.5117481361,0.1049149944\C,-4.50
 89590055,-3.4531378741,0.9118439555\C,-3.8067866546,-2.2509266567,0.90
 58851559\H,0.0227231935,-1.7200928489,0.054640715\H,-2.4161145408,2.57
 51087583,0.1189432651\H,-3.6801483215,0.4580465125,0.1202445118\H,-1.4
 149238735,-3.0403173721,-1.368943473\H,-2.6491591448,-5.1725035247,-1.
 3461160228\H,-4.6421941015,-5.4477049795,0.1095529851\H,-5.3747632403,
 -3.5658373997,1.5547317192\H,-4.1231290053,-1.4434237608,1.5564552535\
 Cl,1.9293518605,0.3402670372,0.0054136607\Cl,0.3502249578,3.153527279,
 0.0576984301\\Version=EM64L-G16RevB.01\State=1-A\HF=-1382.6632675\RMSD
 =7.292e-09\RMSF=1.398e-05\Dipole=-0.9877604,-0.6566792,0.0155946\Quadr
 upole=0.163234,2.3493828,-2.5126168,-1.7125843,-2.5684518,1.5485581\PG
 =C01 [X(C12H8Cl2)]\\@


                                                                                    A
                                                                                  AA
                                                                                 AAA
                                                                                AAAA
                                                                               AAAAA
                                                                              AAAAAA   KKKKKKKK
                                                                             AAAAAAA   KKKKKKKK
                                                                            AAAAAAAA   KKKKKKKK
                                       ZZZZZZZZZZZZZZZZZZZZ                AAAA  AAA   KKKKKKKK
                                       ZZZZZZZZZZZZZZZZZZZ                AAAA   AAA   KKKKKKKK          K
                                       ZZZZZZZZZZZZZZZZZZ                AAAA    AAA   KKKKKKKK         KKK
                                       ZZZZZZZZZZZZZZZZZ                AAAA     AAA   KKKKKKKK        KKKKK
                                       ZZZZZZZZZZZZZZZZ                AAAA      AAA   KKKKKKKK       KKKKKKK
                                                ZZZZZZ                AAAA       AAA   KKKKKKKK      KKKKKKK
                                               ZZZZZZ                AAAA        AAA   KKKKKKKK     KKKKKKK
                                              ZZZZZZ                AAAA         AAA   KKKKKKKK    KKKKKKK
                                             ZZZZZZ                AAAA          AAA   KKKKKKKK   KKKKKKK
                                            ZZZZZZ                AAAAAAAAAAAAAAAAAA   KKKKKKKK  KKKKKKK
                                           ZZZZZZ                AAAAAAAAAAAAAAAAAAA   KKKKKKKK KKKKKKK
                                          ZZZZZZ                AAAAAAAAAAAAAAAAAAAA   KKKKKKKKKKKKKKK
                                         ZZZZZZ                AAAAAAAAAAAAAAAAAAAAA   KKKKKKKKKKKKKK
                                        ZZZZZZ                AAAAAA        AAAAAAAA   KKKKKKKKKKKKK
                                       ZZZZZZ                AAAAAA         AAAAAAAA   KKKKKKKKKKKK
                                      ZZZZZZ                AAAAAA          AAAAAAAA   KKKKKKKKKKK
                                     ZZZZZZ                AAAAAA           AAAAAAAA   KKKKKKKKKKKK
                                    ZZZZZZ                AAAAAA            AAAAAAAA   KKKKKKKKKKKKK
                                   ZZZZZZ                AAAAAA             AAAAAAAA   KKKKKKKKKKKKKK
                                  ZZZZZZ                AAAAAA              AAAAAAAA   KKKKKKKKKKKKKKK
                                 ZZZZZZ                AAAAAA               AAAAAAAA   KKKKK KKKKKKKKKK
                                ZZZZZZ                AAAAAA                AAAAAAAA   KKKKK  KKKKKKKKKK
                               ZZZZZZ                AAAAAA                            KKKKK   KKKKKKKKKK
                              ZZZZZZ                AAAAAA                             KKKKK    KKKKKKKKKK
                             ZZZZZZ                                                    KKKKK     KKKKKKKKKK
                            ZZZZZZ                                                     KKKKK      KKKKKKKKKK
                           ZZZZZZ                                                      KKKKK       KKKKKKKKKK
                          ZZZZZZ                                                       KKKKK        KKKKKKKKKK
                         ZZZZZZZZZZZZZZZZZZZZZZZZZZZZZZZZZZZZZZZZ                      KKKKK         KKKKKKKKKK
                        ZZZZZZZZZZZZZZZZZZZZZZZZZZZZZZZZZZZZZZZZZ                      KKKKK          KKKKKKKKKK
                       ZZZZZZZZZZZZZZZZZZZZZZZZZZZZZZZZZZZZZZZZZZ                      KKKKK           KKKKKKKKKK
                       ZZZZZZZZZZZZZZZZZZZZZZZZZZZZZZZZZZZZZZZZZZ                      KKKKK            KKKKKKKKKK
                       ZZZZZZZZZZZZZZZZZZZZZZZZZZZZZZZZZZZZZZZZZZ                      KKKKK             KKKKKKKKKK
                       ZZZZZZZZZZZZZZZZZZZZZZZZZZZZZZZZZZZZZZZZZZ                      KKKKK              KKKKKKKKKK
                       ZZZZZZZZZZZZZZZZZZZZZZZZZZZZZZZZZZZZZZZZZZ                      KKKKK               KKKKKKKKKK
                       ZZZZZZZZZZZZZZZZZZZZZZZZZZZZZZZZZZZZZZZZZZ                      KKKKK                KKKKKKKKKK
                       ZZZZZZZZZZZZZZZZZZZZZZZZZZZZZZZZZZZZZZZZZZ                      KKKKK
                                                                                       KKKKK
                                                                                          (J.P.)
 Job cpu time:       0 days  6 hours 27 minutes  7.8 seconds.
 Elapsed time:       0 days  2 hours 24 minutes 10.9 seconds.
 File lengths (MBytes):  RWF=     94 Int=      0 D2E=      0 Chk=     15 Scr=      1
 Normal termination of Gaussian 16 at Mon Mar 14 19:30:10 2022.
