 Entering Gaussian System, Link 0=g16
 Input=3,4prime-Dichlorobiphenyl.gjf
 Output=3,4prime-Dichlorobiphenyl.log
 Initial command:
 /usr/local/g16/l1.exe "/scratch/pkc/Gau-3177.inp" -scrdir="/scratch/pkc/"
 Entering Link 1 = /usr/local/g16/l1.exe PID=      3178.
  
 Copyright (c) 1988-2017, Gaussian, Inc.  All Rights Reserved.
  
 This is part of the Gaussian(R) 16 program.  It is based on
 the Gaussian(R) 09 system (copyright 2009, Gaussian, Inc.),
 the Gaussian(R) 03 system (copyright 2003, Gaussian, Inc.),
 the Gaussian(R) 98 system (copyright 1998, Gaussian, Inc.),
 the Gaussian(R) 94 system (copyright 1995, Gaussian, Inc.),
 the Gaussian 92(TM) system (copyright 1992, Gaussian, Inc.),
 the Gaussian 90(TM) system (copyright 1990, Gaussian, Inc.),
 the Gaussian 88(TM) system (copyright 1988, Gaussian, Inc.),
 the Gaussian 86(TM) system (copyright 1986, Carnegie Mellon
 University), and the Gaussian 82(TM) system (copyright 1983,
 Carnegie Mellon University). Gaussian is a federally registered
 trademark of Gaussian, Inc.
  
 This software contains proprietary and confidential information,
 including trade secrets, belonging to Gaussian, Inc.
  
 This software is provided under written license and may be
 used, copied, transmitted, or stored only in accord with that
 written license.
  
 The following legend is applicable only to US Government
 contracts under FAR:
  
                    RESTRICTED RIGHTS LEGEND
  
 Use, reproduction and disclosure by the US Government is
 subject to restrictions as set forth in subparagraphs (a)
 and (c) of the Commercial Computer Software - Restricted
 Rights clause in FAR 52.227-19.
  
 Gaussian, Inc.
 340 Quinnipiac St., Bldg. 40, Wallingford CT 06492
  
  
 ---------------------------------------------------------------
 Warning -- This program may not be used in any manner that
 competes with the business of Gaussian, Inc. or will provide
 assistance to any competitor of Gaussian, Inc.  The licensee
 of this program is prohibited from giving any competitor of
 Gaussian, Inc. access to this program.  By using this program,
 the user acknowledges that Gaussian, Inc. is engaged in the
 business of creating and licensing software in the field of
 computational chemistry and represents and warrants to the
 licensee that it is not a competitor of Gaussian, Inc. and that
 it will not use this program in any manner prohibited above.
 ---------------------------------------------------------------
  

 Cite this work as:
 Gaussian 16, Revision B.01,
 M. J. Frisch, G. W. Trucks, H. B. Schlegel, G. E. Scuseria, 
 M. A. Robb, J. R. Cheeseman, G. Scalmani, V. Barone, 
 G. A. Petersson, H. Nakatsuji, X. Li, M. Caricato, A. V. Marenich, 
 J. Bloino, B. G. Janesko, R. Gomperts, B. Mennucci, H. P. Hratchian, 
 J. V. Ortiz, A. F. Izmaylov, J. L. Sonnenberg, D. Williams-Young, 
 F. Ding, F. Lipparini, F. Egidi, J. Goings, B. Peng, A. Petrone, 
 T. Henderson, D. Ranasinghe, V. G. Zakrzewski, J. Gao, N. Rega, 
 G. Zheng, W. Liang, M. Hada, M. Ehara, K. Toyota, R. Fukuda, 
 J. Hasegawa, M. Ishida, T. Nakajima, Y. Honda, O. Kitao, H. Nakai, 
 T. Vreven, K. Throssell, J. A. Montgomery, Jr., J. E. Peralta, 
 F. Ogliaro, M. J. Bearpark, J. J. Heyd, E. N. Brothers, K. N. Kudin, 
 V. N. Staroverov, T. A. Keith, R. Kobayashi, J. Normand, 
 K. Raghavachari, A. P. Rendell, J. C. Burant, S. S. Iyengar, 
 J. Tomasi, M. Cossi, J. M. Millam, M. Klene, C. Adamo, R. Cammi, 
 J. W. Ochterski, R. L. Martin, K. Morokuma, O. Farkas, 
 J. B. Foresman, and D. J. Fox, Gaussian, Inc., Wallingford CT, 2016.
 
 ******************************************
 Gaussian 16:  EM64L-G16RevB.01 20-Dec-2017
                14-Mar-2022 
 ******************************************
 %mem=10GB
 %nprocshared=4
 Will use up to    4 processors via shared memory.
 --------------------------------
 # opt b3lyp/6-311+g(d,p) scf=xqc
 --------------------------------
 1/18=20,19=15,26=3,38=1/1,3;
 2/9=110,12=2,17=6,18=5,40=1/2;
 3/5=4,6=6,7=111,11=2,25=1,30=1,71=1,74=-5/1,2,3;
 4//1;
 5/5=2,8=3,13=1,38=5/2,8;
 6/7=2,8=2,9=2,10=2,28=1/1;
 7//1,2,3,16;
 1/18=20,19=15,26=3/3(2);
 2/9=110/2;
 99//99;
 2/9=110/2;
 3/5=4,6=6,7=111,11=2,25=1,30=1,71=1,74=-5/1,2,3;
 4/5=5,16=3,69=1/1;
 5/5=2,8=3,13=1,38=5/2,8;
 7//1,2,3,16;
 1/18=20,19=15,26=3/3(-5);
 2/9=110/2;
 6/7=2,8=2,9=2,10=2,19=2,28=1/1;
 99/9=1/99;
 -------------------
 Title Card Required
 -------------------
 Symbolic Z-matrix:
 Charge =  0 Multiplicity = 1
 C                    -1.68444  -2.14007   0.09187 
 C                    -0.35206  -2.11018  -0.34147 
 C                     0.35584  -0.90073  -0.34754 
 C                    -0.26865   0.27883   0.07973 
 C                    -1.60103   0.24895   0.51308 
 C                    -2.30893  -0.9605    0.51915 
 C                    -2.46234  -3.46914   0.09855 
 C                    -1.83786  -4.6487   -0.32873 
 C                    -2.54575  -5.85815  -0.32265 
 C                    -3.87813  -5.88804   0.1107 
 C                    -4.50262  -4.70847   0.53797 
 C                    -3.79472  -3.49902   0.5319 
 H                     0.12475  -3.01081  -0.6677 
 H                     0.27184   1.20228   0.07509 
 H                    -2.07784   1.14957   0.83931 
 H                    -3.32623  -0.98332   0.85002 
 H                    -0.82055  -4.62588  -0.6596 
 H                    -2.06894  -6.75878  -0.64889 
 H                    -5.51992  -4.73129   0.86885 
 H                    -4.27153  -2.5984    0.85813 
 Cl                    2.02916  -0.8632   -0.89178 
 Cl                   -4.76716  -7.40697   0.11833 
 

 GradGradGradGradGradGradGradGradGradGradGradGradGradGradGradGradGradGrad
 Berny optimization.
 Initialization pass.
                           ----------------------------
                           !    Initial Parameters    !
                           ! (Angstroms and Degrees)  !
 --------------------------                            --------------------------
 ! Name  Definition              Value          Derivative Info.                !
 --------------------------------------------------------------------------------
 ! R1    R(1,2)                  1.4014         estimate D2E/DX2                !
 ! R2    R(1,6)                  1.4014         estimate D2E/DX2                !
 ! R3    R(1,7)                  1.54           estimate D2E/DX2                !
 ! R4    R(2,3)                  1.4014         estimate D2E/DX2                !
 ! R5    R(2,13)                 1.07           estimate D2E/DX2                !
 ! R6    R(3,4)                  1.4014         estimate D2E/DX2                !
 ! R7    R(3,21)                 1.76           estimate D2E/DX2                !
 ! R8    R(4,5)                  1.4014         estimate D2E/DX2                !
 ! R9    R(4,14)                 1.07           estimate D2E/DX2                !
 ! R10   R(5,6)                  1.4014         estimate D2E/DX2                !
 ! R11   R(5,15)                 1.07           estimate D2E/DX2                !
 ! R12   R(6,16)                 1.07           estimate D2E/DX2                !
 ! R13   R(7,8)                  1.4014         estimate D2E/DX2                !
 ! R14   R(7,12)                 1.4014         estimate D2E/DX2                !
 ! R15   R(8,9)                  1.4014         estimate D2E/DX2                !
 ! R16   R(8,17)                 1.07           estimate D2E/DX2                !
 ! R17   R(9,10)                 1.4014         estimate D2E/DX2                !
 ! R18   R(9,18)                 1.07           estimate D2E/DX2                !
 ! R19   R(10,11)                1.4014         estimate D2E/DX2                !
 ! R20   R(10,22)                1.76           estimate D2E/DX2                !
 ! R21   R(11,12)                1.4014         estimate D2E/DX2                !
 ! R22   R(11,19)                1.07           estimate D2E/DX2                !
 ! R23   R(12,20)                1.07           estimate D2E/DX2                !
 ! A1    A(2,1,6)              120.0            estimate D2E/DX2                !
 ! A2    A(2,1,7)              120.0            estimate D2E/DX2                !
 ! A3    A(6,1,7)              120.0            estimate D2E/DX2                !
 ! A4    A(1,2,3)              120.0            estimate D2E/DX2                !
 ! A5    A(1,2,13)             120.0            estimate D2E/DX2                !
 ! A6    A(3,2,13)             120.0            estimate D2E/DX2                !
 ! A7    A(2,3,4)              120.0            estimate D2E/DX2                !
 ! A8    A(2,3,21)             120.0            estimate D2E/DX2                !
 ! A9    A(4,3,21)             120.0            estimate D2E/DX2                !
 ! A10   A(3,4,5)              120.0            estimate D2E/DX2                !
 ! A11   A(3,4,14)             120.0            estimate D2E/DX2                !
 ! A12   A(5,4,14)             120.0            estimate D2E/DX2                !
 ! A13   A(4,5,6)              120.0            estimate D2E/DX2                !
 ! A14   A(4,5,15)             120.0            estimate D2E/DX2                !
 ! A15   A(6,5,15)             120.0            estimate D2E/DX2                !
 ! A16   A(1,6,5)              120.0            estimate D2E/DX2                !
 ! A17   A(1,6,16)             120.0            estimate D2E/DX2                !
 ! A18   A(5,6,16)             120.0            estimate D2E/DX2                !
 ! A19   A(1,7,8)              120.0            estimate D2E/DX2                !
 ! A20   A(1,7,12)             120.0            estimate D2E/DX2                !
 ! A21   A(8,7,12)             120.0            estimate D2E/DX2                !
 ! A22   A(7,8,9)              120.0            estimate D2E/DX2                !
 ! A23   A(7,8,17)             120.0            estimate D2E/DX2                !
 ! A24   A(9,8,17)             120.0            estimate D2E/DX2                !
 ! A25   A(8,9,10)             120.0            estimate D2E/DX2                !
 ! A26   A(8,9,18)             120.0            estimate D2E/DX2                !
 ! A27   A(10,9,18)            120.0            estimate D2E/DX2                !
 ! A28   A(9,10,11)            120.0            estimate D2E/DX2                !
 ! A29   A(9,10,22)            120.0            estimate D2E/DX2                !
 ! A30   A(11,10,22)           120.0            estimate D2E/DX2                !
 ! A31   A(10,11,12)           120.0            estimate D2E/DX2                !
 ! A32   A(10,11,19)           120.0            estimate D2E/DX2                !
 ! A33   A(12,11,19)           120.0            estimate D2E/DX2                !
 ! A34   A(7,12,11)            120.0            estimate D2E/DX2                !
 ! A35   A(7,12,20)            120.0            estimate D2E/DX2                !
 ! A36   A(11,12,20)           120.0            estimate D2E/DX2                !
 ! D1    D(6,1,2,3)              0.0001         estimate D2E/DX2                !
 ! D2    D(6,1,2,13)           180.0            estimate D2E/DX2                !
 ! D3    D(7,1,2,3)           -180.0            estimate D2E/DX2                !
 ! D4    D(7,1,2,13)            -0.0001         estimate D2E/DX2                !
 ! D5    D(2,1,6,5)             -0.0001         estimate D2E/DX2                !
 ! D6    D(2,1,6,16)           180.0            estimate D2E/DX2                !
 ! D7    D(7,1,6,5)            180.0            estimate D2E/DX2                !
 ! D8    D(7,1,6,16)             0.0            estimate D2E/DX2                !
 ! D9    D(2,1,7,8)             -0.0001         estimate D2E/DX2                !
 ! D10   D(2,1,7,12)           179.9998         estimate D2E/DX2                !
 ! D11   D(6,1,7,8)            179.9999         estimate D2E/DX2                !
 ! D12   D(6,1,7,12)            -0.0002         estimate D2E/DX2                !
 ! D13   D(1,2,3,4)              0.0            estimate D2E/DX2                !
 ! D14   D(1,2,3,21)           180.0            estimate D2E/DX2                !
 ! D15   D(13,2,3,4)          -179.9999         estimate D2E/DX2                !
 ! D16   D(13,2,3,21)            0.0001         estimate D2E/DX2                !
 ! D17   D(2,3,4,5)             -0.0001         estimate D2E/DX2                !
 ! D18   D(2,3,4,14)           180.0            estimate D2E/DX2                !
 ! D19   D(21,3,4,5)           179.9999         estimate D2E/DX2                !
 ! D20   D(21,3,4,14)            0.0            estimate D2E/DX2                !
 ! D21   D(3,4,5,6)              0.0001         estimate D2E/DX2                !
 ! D22   D(3,4,5,15)          -179.9999         estimate D2E/DX2                !
 ! D23   D(14,4,5,6)          -180.0            estimate D2E/DX2                !
 ! D24   D(14,4,5,15)            0.0            estimate D2E/DX2                !
 ! D25   D(4,5,6,1)              0.0            estimate D2E/DX2                !
 ! D26   D(4,5,6,16)           179.9999         estimate D2E/DX2                !
 ! D27   D(15,5,6,1)           180.0            estimate D2E/DX2                !
 ! D28   D(15,5,6,16)           -0.0001         estimate D2E/DX2                !
 ! D29   D(1,7,8,9)            179.9999         estimate D2E/DX2                !
 ! D30   D(1,7,8,17)             0.0001         estimate D2E/DX2                !
 ! D31   D(12,7,8,9)             0.0001         estimate D2E/DX2                !
 ! D32   D(12,7,8,17)         -179.9998         estimate D2E/DX2                !
 ! D33   D(1,7,12,11)         -179.9999         estimate D2E/DX2                !
 ! D34   D(1,7,12,20)            0.0            estimate D2E/DX2                !
 ! D35   D(8,7,12,11)           -0.0001         estimate D2E/DX2                !
 ! D36   D(8,7,12,20)          179.9999         estimate D2E/DX2                !
 ! D37   D(7,8,9,10)             0.0            estimate D2E/DX2                !
 ! D38   D(7,8,9,18)           180.0            estimate D2E/DX2                !
 ! D39   D(17,8,9,10)          179.9998         estimate D2E/DX2                !
 ! D40   D(17,8,9,18)           -0.0002         estimate D2E/DX2                !
 ! D41   D(8,9,10,11)            0.0            estimate D2E/DX2                !
 ! D42   D(8,9,10,22)         -179.9999         estimate D2E/DX2                !
 ! D43   D(18,9,10,11)         180.0            estimate D2E/DX2                !
 ! D44   D(18,9,10,22)           0.0001         estimate D2E/DX2                !
 ! D45   D(9,10,11,12)           0.0            estimate D2E/DX2                !
 ! D46   D(9,10,11,19)        -179.9998         estimate D2E/DX2                !
 ! D47   D(22,10,11,12)        179.9999         estimate D2E/DX2                !
 ! D48   D(22,10,11,19)          0.0001         estimate D2E/DX2                !
 ! D49   D(10,11,12,7)           0.0            estimate D2E/DX2                !
 ! D50   D(10,11,12,20)       -179.9999         estimate D2E/DX2                !
 ! D51   D(19,11,12,7)         179.9999         estimate D2E/DX2                !
 ! D52   D(19,11,12,20)         -0.0001         estimate D2E/DX2                !
 --------------------------------------------------------------------------------
 Trust Radius=3.00D-01 FncErr=1.00D-07 GrdErr=1.00D-06 EigMax=2.50D+02 EigMin=1.00D-04
 Number of steps in this run=    121 maximum allowed number of steps=    132.
 GradGradGradGradGradGradGradGradGradGradGradGradGradGradGradGradGradGrad

                          Input orientation:                          
 ---------------------------------------------------------------------
 Center     Atomic      Atomic             Coordinates (Angstroms)
 Number     Number       Type             X           Y           Z
 ---------------------------------------------------------------------
      1          6           0       -1.684439   -2.140068    0.091875
      2          6           0       -0.352058   -2.110183   -0.341472
      3          6           0        0.355836   -0.900732   -0.347544
      4          6           0       -0.268651    0.278834    0.079731
      5          6           0       -1.601033    0.248948    0.513075
      6          6           0       -2.308927   -0.960503    0.519148
      7          6           0       -2.462343   -3.469136    0.098549
      8          6           0       -1.837856   -4.648701   -0.328726
      9          6           0       -2.545749   -5.858152   -0.322652
     10          6           0       -3.878129   -5.888038    0.110698
     11          6           0       -4.502616   -4.708473    0.537973
     12          6           0       -3.794723   -3.499022    0.531899
     13          1           0        0.124753   -3.010807   -0.667704
     14          1           0        0.271841    1.202276    0.075095
     15          1           0       -2.077844    1.149573    0.839307
     16          1           0       -3.326229   -0.983321    0.850017
     17          1           0       -0.820554   -4.625882   -0.659596
     18          1           0       -2.068939   -6.758776   -0.648886
     19          1           0       -5.519917   -4.731293    0.868848
     20          1           0       -4.271533   -2.598398    0.858134
     21         17           0        2.029156   -0.863198   -0.891778
     22         17           0       -4.767162   -7.406973    0.118329
 ---------------------------------------------------------------------
                    Distance matrix (angstroms):
                    1          2          3          4          5
     1  C    0.000000
     2  C    1.401400   0.000000
     3  C    2.427296   1.401400   0.000000
     4  C    2.802800   2.427296   1.401400   0.000000
     5  C    2.427296   2.802800   2.427296   1.401400   0.000000
     6  C    1.401400   2.427296   2.802800   2.427296   1.401400
     7  C    1.540000   2.548270   3.838989   4.342800   3.838989
     8  C    2.548270   2.941400   4.342800   5.187469   4.975106
     9  C    3.838989   4.342800   5.744200   6.558176   6.235992
    10  C    4.342800   5.187469   6.558176   7.145600   6.558176
    11  C    3.838989   4.975106   6.235992   6.558176   5.744200
    12  C    2.548270   3.813607   4.975106   5.187469   4.342800
    13  H    2.146700   1.070000   2.146700   3.396345   3.872800
    14  H    3.872800   3.396345   2.146700   1.070000   2.146700
    15  H    3.396345   3.872800   3.396345   2.146700   1.070000
    16  H    2.146700   3.396345   3.872800   3.396345   2.146700
    17  H    2.736837   2.578650   3.918930   4.990735   5.074276
    18  H    4.693509   4.965039   6.347206   7.300676   7.118798
    19  H    4.693509   5.919617   7.118798   7.300676   6.347206
    20  H    2.736837   4.127917   5.074276   4.990735   3.918930
    21  Cl   4.048303   2.743718   1.760000   2.743718   4.048303
    22  Cl   6.102800   6.910901   8.294174   8.905600   8.294174
                    6          7          8          9         10
     6  C    0.000000
     7  C    2.548270   0.000000
     8  C    3.813607   1.401400   0.000000
     9  C    4.975106   2.427296   1.401400   0.000000
    10  C    5.187469   2.802800   2.427296   1.401400   0.000000
    11  C    4.342800   2.427296   2.802800   2.427296   1.401400
    12  C    2.941400   1.401400   2.427296   2.802800   2.427296
    13  H    3.396345   2.736837   2.578650   3.918930   4.990735
    14  H    3.396345   5.412800   6.232802   7.612271   8.215600
    15  H    2.146700   4.693509   5.919617   7.118798   7.300676
    16  H    1.070000   2.736837   4.127917   5.074276   4.990735
    17  H    4.127917   2.146700   1.070000   2.146700   3.396345
    18  H    5.919617   3.396345   2.146700   1.070000   2.146700
    19  H    4.965039   3.396345   3.872800   3.396345   2.146700
    20  H    2.578650   2.146700   3.396345   3.872800   3.396345
    21  Cl   4.562800   5.286324   5.440665   6.797295   7.819846
    22  Cl   6.910901   4.562800   4.048303   2.743718   1.760000
                   11         12         13         14         15
    11  C    0.000000
    12  C    1.401400   0.000000
    13  H    5.074276   4.127917   0.000000
    14  H    7.612271   6.232802   4.280590   0.000000
    15  H    6.347206   4.965039   4.942800   2.471400   0.000000
    16  H    3.918930   2.578650   4.280590   4.280590   2.471400
    17  H    3.872800   3.396345   1.871400   5.974992   6.097816
    18  H    3.396345   3.872800   4.342800   8.329571   8.047159
    19  H    1.070000   2.146700   6.097816   8.329571   6.814200
    20  H    2.146700   1.070000   4.671787   5.974992   4.342800
    21  Cl   7.713260   6.549198   2.879094   2.879094   4.890332
    22  Cl   2.743718   4.048303   6.623817   9.975600   8.998151
                   16         17         18         19         20
    16  H    0.000000
    17  H    4.671787   0.000000
    18  H    6.097816   2.471400   0.000000
    19  H    4.342800   4.942800   4.280590   0.000000
    20  H    1.871400   4.280590   4.942800   2.471400   0.000000
    21  Cl   5.632800   4.725732   7.184095   8.663168   6.765486
    22  Cl   6.623817   4.890332   2.879094   2.879094   4.890332
                   21         22
    21  Cl   0.000000
    22  Cl   9.488480   0.000000
 Stoichiometry    C12H8Cl2
 Framework group  C1[X(C12H8Cl2)]
 Deg. of freedom    60
 Full point group                 C1      NOp   1
 Largest Abelian subgroup         C1      NOp   1
 Largest concise Abelian subgroup C1      NOp   1
                         Standard orientation:                         
 ---------------------------------------------------------------------
 Center     Atomic      Atomic             Coordinates (Angstroms)
 Number     Number       Type             X           Y           Z
 ---------------------------------------------------------------------
      1          6           0       -0.912107    0.556378    0.000002
      2          6           0       -1.812950   -0.517123    0.000001
      3          6           0       -3.193051   -0.273720   -0.000000
      4          6           0       -3.672308    1.043184   -0.000002
      5          6           0       -2.771465    2.116684    0.000001
      6          6           0       -1.391364    1.873281    0.000002
      7          6           0        0.604487    0.288902    0.000003
      8          6           0        1.083744   -1.028001    0.000004
      9          6           0        2.463844   -1.271404    0.000004
     10          6           0        3.364687   -0.197904    0.000001
     11          6           0        2.885430    1.119000   -0.000001
     12          6           0        1.505330    1.362403   -0.000001
     13          1           0       -1.447027   -1.522608    0.000000
     14          1           0       -4.726045    1.229027   -0.000004
     15          1           0       -3.137388    3.122169    0.000002
     16          1           0       -0.703550    2.692923    0.000003
     17          1           0        0.395930   -1.847643    0.000004
     18          1           0        2.829768   -2.276889    0.000005
     19          1           0        3.573244    1.938641   -0.000006
     20          1           0        1.139406    2.367888   -0.000004
     21         17           0       -4.324408   -1.621915   -0.000002
     22         17           0        5.097937   -0.503590   -0.000003
 ---------------------------------------------------------------------
 Rotational constants (GHZ):           1.5447906           0.2085265           0.1837259
 Standard basis: 6-311+G(d,p) (5D, 7F)
 There are   386 symmetry adapted cartesian basis functions of A   symmetry.
 There are   372 symmetry adapted basis functions of A   symmetry.
   372 basis functions,   602 primitive gaussians,   386 cartesian basis functions
    57 alpha electrons       57 beta electrons
       nuclear repulsion energy       929.1945976807 Hartrees.
 NAtoms=   22 NActive=   22 NUniq=   22 SFac= 1.00D+00 NAtFMM=   60 NAOKFM=F Big=F
 Integral buffers will be    131072 words long.
 Raffenetti 2 integral format.
 Two-electron integral symmetry is turned on.
 One-electron integrals computed using PRISM.
 NBasis=   372 RedAO= T EigKep=  1.37D-06  NBF=   372
 NBsUse=   368 1.00D-06 EigRej=  7.86D-07 NBFU=   368
 ExpMin= 4.38D-02 ExpMax= 1.06D+05 ExpMxC= 3.62D+03 IAcc=3 IRadAn=         5 AccDes= 0.00D+00
 Harris functional with IExCor=  402 and IRadAn=       5 diagonalized for initial guess.
 HarFok:  IExCor=  402 AccDes= 0.00D+00 IRadAn=         5 IDoV= 1 UseB2=F ITyADJ=14
 ICtDFT=  3500011 ScaDFX=  1.000000  1.000000  1.000000  1.000000
 FoFCou: FMM=F IPFlag=           0 FMFlag=      100000 FMFlg1=           0
         NFxFlg=           0 DoJE=T BraDBF=F KetDBF=T FulRan=T
         wScrn=  0.000000 ICntrl=       500 IOpCl=  0 I1Cent=   200000004 NGrid=           0
         NMat0=    1 NMatS0=      1 NMatT0=    0 NMatD0=    1 NMtDS0=    0 NMtDT0=    0
 Petite list used in FoFCou.
 Requested convergence on RMS density matrix=1.00D-08 within  32 cycles.
 Requested convergence on MAX density matrix=1.00D-06.
 Requested convergence on             energy=1.00D-06.
 No special actions if energy rises.
 SCF Done:  E(RB3LYP) =  -1382.66045412     A.U. after   16 cycles
            NFock= 16  Conv=0.29D-08     -V/T= 2.0032
 QCSCF skips out because SCF is already converged.

 **********************************************************************

            Population analysis using the SCF Density.

 **********************************************************************

 Orbital symmetries:
       Occupied  (A) (A) (A) (A) (A) (A) (A) (A) (A) (A) (A) (A)
                 (A) (A) (A) (A) (A) (A) (A) (A) (A) (A) (A) (A)
                 (A) (A) (A) (A) (A) (A) (A) (A) (A) (A) (A) (A)
                 (A) (A) (A) (A) (A) (A) (A) (A) (A) (A) (A) (A)
                 (A) (A) (A) (A) (A) (A) (A) (A) (A)
       Virtual   (A) (A) (A) (A) (A) (A) (A) (A) (A) (A) (A) (A)
                 (A) (A) (A) (A) (A) (A) (A) (A) (A) (A) (A) (A)
                 (A) (A) (A) (A) (A) (A) (A) (A) (A) (A) (A) (A)
                 (A) (A) (A) (A) (A) (A) (A) (A) (A) (A) (A) (A)
                 (A) (A) (A) (A) (A) (A) (A) (A) (A) (A) (A) (A)
                 (A) (A) (A) (A) (A) (A) (A) (A) (A) (A) (A) (A)
                 (A) (A) (A) (A) (A) (A) (A) (A) (A) (A) (A) (A)
                 (A) (A) (A) (A) (A) (A) (A) (A) (A) (A) (A) (A)
                 (A) (A) (A) (A) (A) (A) (A) (A) (A) (A) (A) (A)
                 (A) (A) (A) (A) (A) (A) (A) (A) (A) (A) (A) (A)
                 (A) (A) (A) (A) (A) (A) (A) (A) (A) (A) (A) (A)
                 (A) (A) (A) (A) (A) (A) (A) (A) (A) (A) (A) (A)
                 (A) (A) (A) (A) (A) (A) (A) (A) (A) (A) (A) (A)
                 (A) (A) (A) (A) (A) (A) (A) (A) (A) (A) (A) (A)
                 (A) (A) (A) (A) (A) (A) (A) (A) (A) (A) (A) (A)
                 (A) (A) (A) (A) (A) (A) (A) (A) (A) (A) (A) (A)
                 (A) (A) (A) (A) (A) (A) (A) (A) (A) (A) (A) (A)
                 (A) (A) (A) (A) (A) (A) (A) (A) (A) (A) (A) (A)
                 (A) (A) (A) (A) (A) (A) (A) (A) (A) (A) (A) (A)
                 (A) (A) (A) (A) (A) (A) (A) (A) (A) (A) (A) (A)
                 (A) (A) (A) (A) (A) (A) (A) (A) (A) (A) (A) (A)
                 (A) (A) (A) (A) (A) (A) (A) (A) (A) (A) (A) (A)
                 (A) (A) (A) (A) (A) (A) (A) (A) (A) (A) (A) (A)
                 (A) (A) (A) (A) (A) (A) (A) (A) (A) (A) (A) (A)
                 (A) (A) (A) (A) (A) (A) (A) (A) (A) (A) (A) (A)
                 (A) (A) (A) (A) (A) (A) (A) (A) (A) (A) (A)
 The electronic state is 1-A.
 Alpha  occ. eigenvalues -- -101.56284-101.56233 -10.25329 -10.25177 -10.21362
 Alpha  occ. eigenvalues --  -10.21125 -10.20165 -10.20148 -10.19951 -10.19941
 Alpha  occ. eigenvalues --  -10.19932 -10.19908 -10.19818 -10.19430  -9.47725
 Alpha  occ. eigenvalues --   -9.47672  -7.24188  -7.24135  -7.23208  -7.23175
 Alpha  occ. eigenvalues --   -7.23155  -7.23122  -0.90710  -0.90022  -0.86302
 Alpha  occ. eigenvalues --   -0.84229  -0.78607  -0.77617  -0.75417  -0.73275
 Alpha  occ. eigenvalues --   -0.65090  -0.64038  -0.61516  -0.59701  -0.55365
 Alpha  occ. eigenvalues --   -0.51424  -0.50073  -0.49718  -0.46829  -0.46505
 Alpha  occ. eigenvalues --   -0.45995  -0.44547  -0.43981  -0.41819  -0.40348
 Alpha  occ. eigenvalues --   -0.39710  -0.39474  -0.36891  -0.36598  -0.36147
 Alpha  occ. eigenvalues --   -0.33865  -0.32519  -0.32459  -0.29210  -0.28048
 Alpha  occ. eigenvalues --   -0.26457  -0.24151
 Alpha virt. eigenvalues --   -0.06382  -0.04991  -0.02597  -0.00792  -0.00234
 Alpha virt. eigenvalues --    0.00342   0.00758   0.01001   0.01086   0.02843
 Alpha virt. eigenvalues --    0.03302   0.04078   0.04356   0.05381   0.05632
 Alpha virt. eigenvalues --    0.05954   0.06332   0.07186   0.07845   0.07983
 Alpha virt. eigenvalues --    0.08385   0.09040   0.10195   0.10428   0.10996
 Alpha virt. eigenvalues --    0.11083   0.11486   0.11664   0.12201   0.13160
 Alpha virt. eigenvalues --    0.13383   0.14024   0.14394   0.14559   0.14697
 Alpha virt. eigenvalues --    0.15322   0.15530   0.16160   0.16337   0.16730
 Alpha virt. eigenvalues --    0.17542   0.18017   0.18226   0.18581   0.18939
 Alpha virt. eigenvalues --    0.19293   0.19759   0.20277   0.20735   0.21046
 Alpha virt. eigenvalues --    0.21507   0.21674   0.21837   0.22391   0.22955
 Alpha virt. eigenvalues --    0.23559   0.24031   0.24532   0.24799   0.25538
 Alpha virt. eigenvalues --    0.26062   0.26881   0.27292   0.28468   0.28716
 Alpha virt. eigenvalues --    0.29315   0.30026   0.30745   0.31886   0.32936
 Alpha virt. eigenvalues --    0.33570   0.33793   0.35005   0.35212   0.36654
 Alpha virt. eigenvalues --    0.38298   0.38502   0.43010   0.44264   0.45221
 Alpha virt. eigenvalues --    0.45819   0.45883   0.46061   0.46106   0.47874
 Alpha virt. eigenvalues --    0.49600   0.50494   0.51606   0.52138   0.53273
 Alpha virt. eigenvalues --    0.53517   0.53917   0.54490   0.54689   0.55095
 Alpha virt. eigenvalues --    0.56492   0.56921   0.57728   0.58558   0.60318
 Alpha virt. eigenvalues --    0.60541   0.60929   0.61425   0.62945   0.63144
 Alpha virt. eigenvalues --    0.65510   0.65823   0.66364   0.66792   0.67454
 Alpha virt. eigenvalues --    0.67760   0.67958   0.69618   0.70200   0.72359
 Alpha virt. eigenvalues --    0.73590   0.74111   0.77091   0.77847   0.81285
 Alpha virt. eigenvalues --    0.82035   0.82331   0.83052   0.83255   0.84112
 Alpha virt. eigenvalues --    0.84120   0.84575   0.85676   0.86084   0.86087
 Alpha virt. eigenvalues --    0.87407   0.87873   0.88233   0.89219   0.89548
 Alpha virt. eigenvalues --    0.90156   0.92431   0.93340   0.93801   0.95015
 Alpha virt. eigenvalues --    0.95375   0.95791   0.96264   0.96983   1.00108
 Alpha virt. eigenvalues --    1.00110   1.02065   1.02894   1.04434   1.05606
 Alpha virt. eigenvalues --    1.06324   1.06823   1.08307   1.08592   1.10663
 Alpha virt. eigenvalues --    1.12093   1.12733   1.14251   1.17289   1.22956
 Alpha virt. eigenvalues --    1.25335   1.27340   1.27377   1.28099   1.28998
 Alpha virt. eigenvalues --    1.33352   1.34999   1.44664   1.45328   1.46542
 Alpha virt. eigenvalues --    1.47015   1.49739   1.51749   1.53819   1.54267
 Alpha virt. eigenvalues --    1.54928   1.55338   1.55556   1.57514   1.60967
 Alpha virt. eigenvalues --    1.61377   1.61884   1.63276   1.65764   1.66970
 Alpha virt. eigenvalues --    1.69529   1.70461   1.71366   1.74420   1.74740
 Alpha virt. eigenvalues --    1.76708   1.81966   1.83172   1.83703   1.84076
 Alpha virt. eigenvalues --    1.87663   1.88860   1.89477   1.90609   1.92529
 Alpha virt. eigenvalues --    1.92840   1.94336   1.95128   1.96604   1.98256
 Alpha virt. eigenvalues --    1.98349   1.99061   2.00413   2.02955   2.04376
 Alpha virt. eigenvalues --    2.04838   2.07019   2.08107   2.12326   2.17595
 Alpha virt. eigenvalues --    2.21949   2.25186   2.25728   2.26839   2.27794
 Alpha virt. eigenvalues --    2.28196   2.29115   2.33924   2.35238   2.36430
 Alpha virt. eigenvalues --    2.39140   2.40139   2.42334   2.44156   2.46154
 Alpha virt. eigenvalues --    2.50264   2.53986   2.54795   2.59406   2.61488
 Alpha virt. eigenvalues --    2.61970   2.62184   2.64279   2.64389   2.67781
 Alpha virt. eigenvalues --    2.69130   2.69707   2.70498   2.72989   2.74190
 Alpha virt. eigenvalues --    2.74276   2.74643   2.74971   2.75336   2.79241
 Alpha virt. eigenvalues --    2.80454   2.81047   2.82612   2.84385   2.84971
 Alpha virt. eigenvalues --    2.85251   2.92228   2.93005   2.93900   2.95297
 Alpha virt. eigenvalues --    3.05860   3.06742   3.07082   3.09529   3.15461
 Alpha virt. eigenvalues --    3.18512   3.20140   3.21465   3.32379   3.34248
 Alpha virt. eigenvalues --    3.38123   3.40898   3.48163   3.51631   3.55313
 Alpha virt. eigenvalues --    3.58521   3.63010   3.69242   3.78798   3.80863
 Alpha virt. eigenvalues --    3.99514   4.03162   4.11392   4.12985   4.17093
 Alpha virt. eigenvalues --    4.22098   4.48277   4.80047   4.84092   9.76890
 Alpha virt. eigenvalues --    9.77926  23.48919  23.63095  23.86328  23.88211
 Alpha virt. eigenvalues --   23.92748  23.94746  24.00933  24.03508  24.05328
 Alpha virt. eigenvalues --   24.06769  24.13955  24.14330  25.82071  25.82390
 Alpha virt. eigenvalues --   26.12269  26.14174  26.59634  26.60975 215.75936
 Alpha virt. eigenvalues --  215.77035
          Condensed to atoms (all electrons):
               1          2          3          4          5          6
     1  C    9.109421   1.183271  -0.638661  -0.935517  -0.055331  -1.853502
     2  C    1.183271  14.139320   0.197958  -4.252857   0.836551  -4.239745
     3  C   -0.638661   0.197958  14.617108  -4.931239   0.594251  -1.704963
     4  C   -0.935517  -4.252857  -4.931239  13.983514   0.078529   1.942287
     5  C   -0.055331   0.836551   0.594251   0.078529   9.626732  -3.124893
     6  C   -1.853502  -4.239745  -1.704963   1.942287  -3.124893  14.683986
     7  C    2.124217  -1.860548  -0.347178   0.191441  -0.320671   0.360908
     8  C    0.025067   4.211247  -0.939287  -0.420151   0.252878  -4.118593
     9  C   -0.438902  -0.281037   0.456798   0.034291   0.037664   0.250716
    10  C   -0.897283  -0.041082  -0.307155   0.018860  -0.309429  -0.297825
    11  C   -0.381521  -0.360831  -0.095188  -0.055569   0.106788   0.341077
    12  C   -1.514997  -3.419030  -0.839634   0.787724  -1.841432   3.763855
    13  H   -0.000442   0.281135  -0.117754   0.080609  -0.031227   0.015862
    14  H    0.048379   0.015651   0.041715   0.315307  -0.032619  -0.041889
    15  H    0.019747  -0.031994  -0.029446   0.019224   0.357611   0.005952
    16  H    0.016582   0.003271  -0.015019  -0.001131  -0.102639   0.360500
    17  H    0.040931   0.017594  -0.000277  -0.006913   0.003971   0.024875
    18  H    0.002452   0.012460  -0.000549  -0.000020   0.000190  -0.002256
    19  H   -0.002992  -0.000516  -0.000060   0.000289  -0.000552   0.010416
    20  H    0.047370   0.026128   0.005241  -0.003100   0.025814   0.002674
    21  Cl  -0.323441   0.504113  -0.693409  -0.280887   0.258416  -0.013888
    22  Cl  -0.042411  -0.024382  -0.005339  -0.000079  -0.007696  -0.027870
               7          8          9         10         11         12
     1  C    2.124217   0.025067  -0.438902  -0.897283  -0.381521  -1.514997
     2  C   -1.860548   4.211247  -0.281037  -0.041082  -0.360831  -3.419030
     3  C   -0.347178  -0.939287   0.456798  -0.307155  -0.095188  -0.839634
     4  C    0.191441  -0.420151   0.034291   0.018860  -0.055569   0.787724
     5  C   -0.320671   0.252878   0.037664  -0.309429   0.106788  -1.841432
     6  C    0.360908  -4.118593   0.250716  -0.297825   0.341077   3.763855
     7  C   10.478882  -2.631673   1.372884  -3.737271  -0.220885   0.128968
     8  C   -2.631673  15.784003  -1.878284   0.367035  -1.077594  -3.505462
     9  C    1.372884  -1.878284  15.633106  -1.881537  -5.492721  -1.514883
    10  C   -3.737271   0.367035  -1.881537  14.081127  -0.129557  -0.687169
    11  C   -0.220885  -1.077594  -5.492721  -0.129557  12.431840   1.184932
    12  C    0.128968  -3.505462  -1.514883  -0.687169   1.184932  13.660487
    13  H    0.063420   0.007535  -0.002821   0.003416  -0.003956   0.044873
    14  H    0.004643   0.001521   0.000146   0.000010   0.000243   0.000741
    15  H   -0.003378  -0.003687   0.000058   0.000136   0.000718   0.013611
    16  H    0.023069   0.021363   0.001458   0.002074  -0.003989   0.017608
    17  H    0.050224   0.335081  -0.077855  -0.037874  -0.008070  -0.017949
    18  H   -0.003706  -0.037960   0.252273   0.084589   0.055055  -0.005644
    19  H    0.023713  -0.009731   0.056051   0.053694   0.312834  -0.086184
    20  H    0.052902  -0.003153  -0.016266  -0.040699  -0.091133   0.317646
    21  Cl  -0.137430  -0.016175   0.022702  -0.006929   0.001756  -0.085831
    22  Cl  -0.343776   0.227376   0.126979  -1.062746   0.138832   0.203788
              13         14         15         16         17         18
     1  C   -0.000442   0.048379   0.019747   0.016582   0.040931   0.002452
     2  C    0.281135   0.015651  -0.031994   0.003271   0.017594   0.012460
     3  C   -0.117754   0.041715  -0.029446  -0.015019  -0.000277  -0.000549
     4  C    0.080609   0.315307   0.019224  -0.001131  -0.006913  -0.000020
     5  C   -0.031227  -0.032619   0.357611  -0.102639   0.003971   0.000190
     6  C    0.015862  -0.041889   0.005952   0.360500   0.024875  -0.002256
     7  C    0.063420   0.004643  -0.003378   0.023069   0.050224  -0.003706
     8  C    0.007535   0.001521  -0.003687   0.021363   0.335081  -0.037960
     9  C   -0.002821   0.000146   0.000058   0.001458  -0.077855   0.252273
    10  C    0.003416   0.000010   0.000136   0.002074  -0.037874   0.084589
    11  C   -0.003956   0.000243   0.000718  -0.003989  -0.008070   0.055055
    12  C    0.044873   0.000741   0.013611   0.017608  -0.017949  -0.005644
    13  H    0.540751  -0.000346   0.000082   0.000002   0.002918   0.000032
    14  H   -0.000346   0.513546  -0.007487  -0.000242   0.000000  -0.000000
    15  H    0.000082  -0.007487   0.531894  -0.007081   0.000001   0.000000
    16  H    0.000002  -0.000242  -0.007081   0.560970  -0.000114   0.000001
    17  H    0.002918   0.000000   0.000001  -0.000114   0.553137  -0.007966
    18  H    0.000032  -0.000000   0.000000   0.000001  -0.007966   0.516050
    19  H    0.000001  -0.000000   0.000000   0.000035   0.000080  -0.000354
    20  H   -0.000114  -0.000001  -0.000010   0.001666  -0.000113   0.000082
    21  Cl  -0.023262  -0.005309   0.000066   0.000026   0.000333   0.000015
    22  Cl   0.000067   0.000000  -0.000000   0.000019  -0.000360  -0.013196
              19         20         21         22
     1  C   -0.002992   0.047370  -0.323441  -0.042411
     2  C   -0.000516   0.026128   0.504113  -0.024382
     3  C   -0.000060   0.005241  -0.693409  -0.005339
     4  C    0.000289  -0.003100  -0.280887  -0.000079
     5  C   -0.000552   0.025814   0.258416  -0.007696
     6  C    0.010416   0.002674  -0.013888  -0.027870
     7  C    0.023713   0.052902  -0.137430  -0.343776
     8  C   -0.009731  -0.003153  -0.016175   0.227376
     9  C    0.056051  -0.016266   0.022702   0.126979
    10  C    0.053694  -0.040699  -0.006929  -1.062746
    11  C    0.312834  -0.091133   0.001756   0.138832
    12  C   -0.086184   0.317646  -0.085831   0.203788
    13  H    0.000001  -0.000114  -0.023262   0.000067
    14  H   -0.000000  -0.000001  -0.005309   0.000000
    15  H    0.000000  -0.000010   0.000066  -0.000000
    16  H    0.000035   0.001666   0.000026   0.000019
    17  H    0.000080  -0.000113   0.000333  -0.000360
    18  H   -0.000354   0.000082   0.000015  -0.013196
    19  H    0.516025  -0.007981  -0.000001  -0.011806
    20  H   -0.007981   0.556426   0.000083  -0.000379
    21  Cl  -0.000001   0.000083  17.386445  -0.000027
    22  Cl  -0.011806  -0.000379  -0.000027  17.440533
 Mulliken charges:
               1
     1  C    0.467563
     2  C   -0.916676
     3  C    0.752088
     4  C   -0.564612
     5  C   -0.352905
     6  C   -0.337685
     7  C    0.731243
     8  C   -0.591358
     9  C   -0.660817
    10  C    0.825614
    11  C   -0.653060
    12  C   -0.606016
    13  H    0.139221
    14  H    0.145989
    15  H    0.133981
    16  H    0.121569
    17  H    0.128346
    18  H    0.148455
    19  H    0.147037
    20  H    0.126918
    21  Cl   0.412633
    22  Cl   0.402473
 Sum of Mulliken charges =  -0.00000
 Mulliken charges with hydrogens summed into heavy atoms:
               1
     1  C    0.467563
     2  C   -0.777454
     3  C    0.752088
     4  C   -0.418624
     5  C   -0.218924
     6  C   -0.216115
     7  C    0.731243
     8  C   -0.463012
     9  C   -0.512362
    10  C    0.825614
    11  C   -0.506023
    12  C   -0.479098
    21  Cl   0.412633
    22  Cl   0.402473
 Electronic spatial extent (au):  <R**2>=           5215.7505
 Charge=             -0.0000 electrons
 Dipole moment (field-independent basis, Debye):
    X=             -0.5186    Y=              1.6559    Z=             -0.0000  Tot=              1.7352
 Quadrupole moment (field-independent basis, Debye-Ang):
   XX=           -104.5893   YY=            -85.1616   ZZ=           -101.1845
   XY=             -3.9150   XZ=             -0.0000   YZ=             -0.0000
 Traceless Quadrupole moment (field-independent basis, Debye-Ang):
   XX=             -7.6109   YY=             11.8169   ZZ=             -4.2060
   XY=             -3.9150   XZ=             -0.0000   YZ=             -0.0000
 Octapole moment (field-independent basis, Debye-Ang**2):
  XXX=            -32.6940  YYY=              4.0322  ZZZ=             -0.0000  XYY=              3.5537
  XXY=             29.1086  XXZ=             -0.0001  XZZ=              2.4138  YZZ=             -6.3416
  YYZ=             -0.0000  XYZ=             -0.0001
 Hexadecapole moment (field-independent basis, Debye-Ang**3):
 XXXX=          -6051.0053 YYYY=           -892.0304 ZZZZ=           -119.9705 XXXY=            -50.8364
 XXXZ=             -0.0001 YYYX=             -2.9519 YYYZ=             -0.0000 ZZZX=             -0.0001
 ZZZY=              0.0000 XXYY=          -1085.1436 XXZZ=          -1053.1445 YYZZ=           -198.7112
 XXYZ=             -0.0002 YYXZ=             -0.0001 ZZXY=             13.1812
 N-N= 9.291945976807D+02 E-N=-5.117602541342D+03  KE= 1.378281344212D+03
 Calling FoFJK, ICntrl=      2127 FMM=F ISym2X=0 I1Cent= 0 IOpClX= 0 NMat=1 NMatS=1 NMatT=0.
 ***** Axes restored to original set *****
 -------------------------------------------------------------------
 Center     Atomic                   Forces (Hartrees/Bohr)
 Number     Number              X              Y              Z
 -------------------------------------------------------------------
      1        6          -0.014609616   -0.021716303    0.000734584
      2        6           0.000608123    0.015917816    0.002789276
      3        6          -0.014565569   -0.001903494    0.004441326
      4        6          -0.003432918   -0.007656778   -0.000307251
      5        6           0.006994799   -0.019754005   -0.006014393
      6        6           0.017511252    0.007433159   -0.004373111
      7        6           0.016702339    0.026290078   -0.000565017
      8        6          -0.022901404   -0.005978225    0.006422335
      9        6          -0.004422960    0.009991835    0.003333670
     10        6           0.006280505    0.010684651   -0.000062425
     11        6           0.011002300    0.000964888   -0.003443430
     12        6           0.005882977   -0.022599204   -0.006182624
     13        1           0.006108774   -0.003326661   -0.002637397
     14        1           0.005266153    0.007482683   -0.000329634
     15        1          -0.003346536    0.008423636    0.002684616
     16        1          -0.006214773    0.003021997    0.002614988
     17        1           0.006067643   -0.004064626   -0.002762518
     18        1           0.003526753   -0.008049090   -0.002673570
     19        1          -0.008735317   -0.000842626    0.002719589
     20        1          -0.006372468    0.003258542    0.002711440
     21       17          -0.002858996   -0.000176834    0.000908698
     22       17           0.001508940    0.002598560   -0.000009153
 -------------------------------------------------------------------
 Cartesian Forces:  Max     0.026290078 RMS     0.008937844

 GradGradGradGradGradGradGradGradGradGradGradGradGradGradGradGradGradGrad
 Berny optimization.
 FormGI is forming the generalized inverse of G from B-inverse, IUseBI=4.
 Internal  Forces:  Max     0.014892023 RMS     0.004628573
 Search for a local minimum.
 Step number   1 out of a maximum of  121
 All quantities printed in internal units (Hartrees-Bohrs-Radians)
 Mixed Optimization -- RFO/linear search
 Second derivative matrix not updated -- first step.
 ITU=  0
     Eigenvalues ---    0.00237   0.01506   0.01506   0.02070   0.02070
     Eigenvalues ---    0.02070   0.02070   0.02070   0.02070   0.02070
     Eigenvalues ---    0.02070   0.02070   0.02070   0.02070   0.02070
     Eigenvalues ---    0.02070   0.02070   0.02070   0.02070   0.16000
     Eigenvalues ---    0.16000   0.16000   0.16000   0.16000   0.16000
     Eigenvalues ---    0.16000   0.16000   0.22000   0.22000   0.22981
     Eigenvalues ---    0.23478   0.23493   0.24000   0.25000   0.25000
     Eigenvalues ---    0.25000   0.25000   0.28519   0.29539   0.29539
     Eigenvalues ---    0.37230   0.37230   0.37230   0.37230   0.37230
     Eigenvalues ---    0.37230   0.37230   0.37230   0.41268   0.41364
     Eigenvalues ---    0.41554   0.41640   0.45389   0.45389   0.45389
     Eigenvalues ---    0.45389   0.45389   0.45389   0.45389   0.45389
 RFO step:  Lambda=-7.50459199D-03 EMin= 2.36824243D-03
 Linear search not attempted -- first point.
 Iteration  1 RMS(Cart)=  0.02045880 RMS(Int)=  0.00027620
 Iteration  2 RMS(Cart)=  0.00034767 RMS(Int)=  0.00003311
 Iteration  3 RMS(Cart)=  0.00000006 RMS(Int)=  0.00003311
 Variable       Old X    -DE/DX   Delta X   Delta X   Delta X     New X
                                 (Linear)    (Quad)   (Total)
    R1        2.64826   0.00003   0.00000   0.00073   0.00077   2.64903
    R2        2.64826   0.00106   0.00000   0.00297   0.00298   2.65124
    R3        2.91018  -0.01489   0.00000  -0.05088  -0.05088   2.85930
    R4        2.64826  -0.01010   0.00000  -0.02190  -0.02188   2.62639
    R5        2.02201   0.00633   0.00000   0.01666   0.01666   2.03866
    R6        2.64826  -0.01117   0.00000  -0.02488  -0.02489   2.62337
    R7        3.32592  -0.00300   0.00000  -0.00991  -0.00991   3.31601
    R8        2.64826  -0.00975   0.00000  -0.02180  -0.02183   2.62643
    R9        2.02201   0.00912   0.00000   0.02401   0.02401   2.04602
   R10        2.64826  -0.00766   0.00000  -0.01660  -0.01662   2.63164
   R11        2.02201   0.00940   0.00000   0.02475   0.02475   2.04676
   R12        2.02201   0.00665   0.00000   0.01752   0.01752   2.03952
   R13        2.64826   0.00090   0.00000   0.00268   0.00275   2.65101
   R14        2.64826   0.00075   0.00000   0.00235   0.00241   2.65067
   R15        2.64826  -0.00895   0.00000  -0.01940  -0.01940   2.62887
   R16        2.02201   0.00654   0.00000   0.01721   0.01721   2.03922
   R17        2.64826  -0.01103   0.00000  -0.02464  -0.02471   2.62356
   R18        2.02201   0.00916   0.00000   0.02412   0.02412   2.04613
   R19        2.64826  -0.01099   0.00000  -0.02455  -0.02462   2.62364
   R20        3.32592  -0.00300   0.00000  -0.00992  -0.00992   3.31600
   R21        2.64826  -0.00892   0.00000  -0.01934  -0.01934   2.62892
   R22        2.02201   0.00916   0.00000   0.02413   0.02413   2.04614
   R23        2.02201   0.00641   0.00000   0.01688   0.01688   2.03888
    A1        2.09440  -0.01049   0.00000  -0.03850  -0.03845   2.05594
    A2        2.09440   0.00363   0.00000   0.01298   0.01295   2.10735
    A3        2.09440   0.00686   0.00000   0.02553   0.02550   2.11989
    A4        2.09440   0.00167   0.00000   0.00846   0.00852   2.10291
    A5        2.09440   0.00312   0.00000   0.01939   0.01936   2.11376
    A6        2.09440  -0.00479   0.00000  -0.02785  -0.02788   2.06652
    A7        2.09440   0.00729   0.00000   0.02686   0.02686   2.12126
    A8        2.09440  -0.00384   0.00000  -0.01417  -0.01418   2.08022
    A9        2.09440  -0.00345   0.00000  -0.01268  -0.01269   2.08171
   A10        2.09440  -0.00583   0.00000  -0.02865  -0.02871   2.06569
   A11        2.09440   0.00209   0.00000   0.00938   0.00941   2.10380
   A12        2.09440   0.00374   0.00000   0.01927   0.01930   2.11369
   A13        2.09440   0.00341   0.00000   0.01335   0.01329   2.10768
   A14        2.09440  -0.00272   0.00000  -0.01273  -0.01270   2.08170
   A15        2.09440  -0.00069   0.00000  -0.00062  -0.00059   2.09380
   A16        2.09440   0.00395   0.00000   0.01850   0.01849   2.11289
   A17        2.09440   0.00127   0.00000   0.01015   0.01016   2.10455
   A18        2.09440  -0.00523   0.00000  -0.02865  -0.02865   2.06575
   A19        2.09440   0.00639   0.00000   0.02384   0.02377   2.11816
   A20        2.09440   0.00596   0.00000   0.02219   0.02212   2.11652
   A21        2.09440  -0.01235   0.00000  -0.04603  -0.04589   2.04850
   A22        2.09440   0.00626   0.00000   0.02820   0.02827   2.12267
   A23        2.09440   0.00119   0.00000   0.01168   0.01165   2.10604
   A24        2.09440  -0.00745   0.00000  -0.03989  -0.03992   2.05448
   A25        2.09440  -0.00172   0.00000  -0.00985  -0.00991   2.08448
   A26        2.09440   0.00153   0.00000   0.00892   0.00895   2.10335
   A27        2.09440   0.00019   0.00000   0.00093   0.00096   2.09536
   A28        2.09440   0.00326   0.00000   0.00928   0.00914   2.10354
   A29        2.09440  -0.00161   0.00000  -0.00456  -0.00449   2.08990
   A30        2.09440  -0.00165   0.00000  -0.00472  -0.00465   2.08974
   A31        2.09440  -0.00160   0.00000  -0.00935  -0.00942   2.08497
   A32        2.09440   0.00014   0.00000   0.00071   0.00075   2.09514
   A33        2.09440   0.00146   0.00000   0.00864   0.00867   2.10307
   A34        2.09440   0.00616   0.00000   0.02774   0.02781   2.12221
   A35        2.09440   0.00115   0.00000   0.01138   0.01134   2.10574
   A36        2.09440  -0.00731   0.00000  -0.03912  -0.03915   2.05524
    D1        0.00000  -0.00000   0.00000  -0.00000  -0.00000   0.00000
    D2        3.14159   0.00000   0.00000   0.00000   0.00000   3.14159
    D3       -3.14159  -0.00000   0.00000  -0.00000  -0.00000  -3.14159
    D4       -0.00000   0.00000   0.00000   0.00000   0.00000  -0.00000
    D5       -0.00000   0.00000   0.00000   0.00000   0.00000  -0.00000
    D6        3.14159   0.00000   0.00000  -0.00000  -0.00000   3.14159
    D7        3.14159   0.00000   0.00000   0.00000   0.00000   3.14159
    D8        0.00000  -0.00000   0.00000  -0.00000  -0.00000  -0.00000
    D9       -0.00000  -0.00000   0.00000  -0.00000  -0.00000  -0.00001
   D10        3.14159  -0.00000   0.00000  -0.00000  -0.00000   3.14159
   D11        3.14159  -0.00000   0.00000  -0.00000  -0.00000   3.14159
   D12       -0.00000  -0.00000   0.00000  -0.00000  -0.00000  -0.00001
   D13        0.00000  -0.00000   0.00000  -0.00000  -0.00000  -0.00000
   D14        3.14159   0.00000   0.00000   0.00000   0.00000  -3.14159
   D15       -3.14159  -0.00000   0.00000  -0.00000  -0.00000  -3.14159
   D16        0.00000  -0.00000   0.00000  -0.00000  -0.00000   0.00000
   D17       -0.00000   0.00000   0.00000   0.00000   0.00000  -0.00000
   D18        3.14159   0.00000   0.00000   0.00000   0.00000   3.14159
   D19        3.14159   0.00000   0.00000   0.00000   0.00000   3.14159
   D20        0.00000  -0.00000   0.00000  -0.00000  -0.00000  -0.00000
   D21        0.00000  -0.00000   0.00000  -0.00000  -0.00000   0.00000
   D22       -3.14159  -0.00000   0.00000  -0.00000  -0.00000  -3.14159
   D23       -3.14159  -0.00000   0.00000  -0.00000  -0.00000   3.14159
   D24        0.00000  -0.00000   0.00000  -0.00000  -0.00000   0.00000
   D25       -0.00000   0.00000   0.00000   0.00000   0.00000   0.00000
   D26        3.14159   0.00000   0.00000   0.00000   0.00000  -3.14159
   D27        3.14159   0.00000   0.00000   0.00000   0.00000   3.14159
   D28       -0.00000   0.00000   0.00000   0.00000   0.00000  -0.00000
   D29        3.14159   0.00000   0.00000   0.00000   0.00000  -3.14159
   D30        0.00000  -0.00000   0.00000  -0.00000  -0.00000   0.00000
   D31        0.00000  -0.00000   0.00000  -0.00000  -0.00000   0.00000
   D32       -3.14159  -0.00000   0.00000  -0.00000  -0.00000  -3.14159
   D33       -3.14159  -0.00000   0.00000  -0.00000  -0.00000   3.14159
   D34        0.00000  -0.00000   0.00000  -0.00000  -0.00000  -0.00000
   D35       -0.00000   0.00000   0.00000   0.00000   0.00000  -0.00000
   D36        3.14159   0.00000   0.00000   0.00000   0.00000   3.14159
   D37       -0.00000  -0.00000   0.00000   0.00000   0.00000  -0.00000
   D38        3.14159  -0.00000   0.00000  -0.00000  -0.00000   3.14159
   D39        3.14159   0.00000   0.00000   0.00000   0.00000   3.14159
   D40       -0.00000   0.00000   0.00000   0.00000   0.00000  -0.00000
   D41       -0.00000   0.00000   0.00000   0.00000   0.00000   0.00000
   D42       -3.14159  -0.00000   0.00000  -0.00000  -0.00000  -3.14159
   D43        3.14159   0.00000   0.00000   0.00000   0.00000  -3.14159
   D44        0.00000  -0.00000   0.00000  -0.00000  -0.00000   0.00000
   D45        0.00000   0.00000   0.00000   0.00000   0.00000   0.00000
   D46       -3.14159  -0.00000   0.00000  -0.00000  -0.00000  -3.14159
   D47        3.14159   0.00000   0.00000   0.00000   0.00000  -3.14159
   D48        0.00000  -0.00000   0.00000  -0.00000  -0.00000   0.00000
   D49        0.00000  -0.00000   0.00000  -0.00000  -0.00000  -0.00000
   D50       -3.14159  -0.00000   0.00000  -0.00000  -0.00000  -3.14159
   D51        3.14159   0.00000   0.00000   0.00000   0.00000   3.14159
   D52       -0.00000   0.00000   0.00000   0.00000   0.00000  -0.00000
         Item               Value     Threshold  Converged?
 Maximum Force            0.014892     0.000450     NO 
 RMS     Force            0.004629     0.000300     NO 
 Maximum Displacement     0.082478     0.001800     NO 
 RMS     Displacement     0.020504     0.001200     NO 
 Predicted change in Energy=-3.850027D-03
 GradGradGradGradGradGradGradGradGradGradGradGradGradGradGradGradGradGrad

                          Input orientation:                          
 ---------------------------------------------------------------------
 Center     Atomic      Atomic             Coordinates (Angstroms)
 Number     Number       Type             X           Y           Z
 ---------------------------------------------------------------------
      1          6           0       -1.694701   -2.149315    0.093521
      2          6           0       -0.361353   -2.098397   -0.336193
      3          6           0        0.333141   -0.894537   -0.338902
      4          6           0       -0.261855    0.287979    0.079207
      5          6           0       -1.583613    0.246620    0.506897
      6          6           0       -2.292354   -0.952113    0.515263
      7          6           0       -2.456213   -3.456782    0.098852
      8          6           0       -1.856548   -4.652682   -0.323316
      9          6           0       -2.551623   -5.857723   -0.320637
     10          6           0       -3.871418   -5.883066    0.109421
     11          6           0       -4.497116   -4.718757    0.534232
     12          6           0       -3.790585   -3.520385    0.526527
     13          1           0        0.150470   -2.986842   -0.671671
     14          1           0        0.294389    1.216831    0.070396
     15          1           0       -2.062497    1.160543    0.836308
     16          1           0       -3.316661   -0.939676    0.855060
     17          1           0       -0.832380   -4.664858   -0.663023
     18          1           0       -2.071094   -6.770283   -0.650341
     19          1           0       -5.526739   -4.747471    0.868058
     20          1           0       -4.303486   -2.632518    0.862257
     21         17           0        2.000979   -0.869988   -0.883767
     22         17           0       -4.755858   -7.398608    0.116172
 ---------------------------------------------------------------------
                    Distance matrix (angstroms):
                    1          2          3          4          5
     1  C    0.000000
     2  C    1.401807   0.000000
     3  C    2.423552   1.389824   0.000000
     4  C    2.827305   2.424304   1.388229   0.000000
     5  C    2.433870   2.775577   2.385700   1.389846   0.000000
     6  C    1.402978   2.401606   2.761547   2.418863   1.392604
     7  C    1.513076   2.534346   3.812771   4.340371   3.826633
     8  C    2.542990   2.959755   4.349556   5.207226   4.976637
     9  C    3.828594   4.350868   5.740681   6.570583   6.235773
    10  C    4.321949   5.181008   6.539475   7.149241   6.554776
    11  C    3.827504   4.972772   6.222412   6.573575   5.757102
    12  C    2.541664   3.811295   4.964793   5.211110   4.365941
    13  H    2.166016   1.078815   2.126463   3.385008   3.853744
    14  H    3.909981   3.403829   2.151023   1.082706   2.158410
    15  H    3.412062   3.858671   3.368020   2.139365   1.083096
    16  H    2.161926   3.390511   3.840396   3.382443   2.128843
    17  H    2.764763   2.629716   3.959649   5.040536   5.104477
    18  H    4.695566   4.984818   6.356235   7.322884   7.128377
    19  H    4.694128   5.928662   7.116183   7.327827   6.373353
    20  H    2.762282   4.154754   5.095260   5.047499   3.976610
    21  Cl   4.031107   2.718353   1.754754   2.718203   4.003756
    22  Cl   6.076699   6.899894   8.270910   8.903990   8.286454
                    6          7          8          9         10
     6  C    0.000000
     7  C    2.544330   0.000000
     8  C    3.819340   1.402855   0.000000
     9  C    4.983067   2.439178   1.391136   0.000000
    10  C    5.193500   2.808873   2.400167   1.388326   0.000000
    11  C    4.364510   2.438734   2.777112   2.411014   1.388372
    12  C    2.973356   1.402676   2.396837   2.777744   2.400577
    13  H    3.393571   2.758504   2.631444   3.958092   5.017350
    14  H    3.404918   5.423032   6.263604   7.635575   8.231889
    15  H    2.149237   4.692393   5.931335   7.129785   7.308419
    16  H    1.079269   2.765510   4.160158   5.114170   5.029994
    17  H    4.159851   2.162577   1.079106   2.120366   3.363993
    18  H    5.937902   3.418902   2.153417   1.082764   2.146056
    19  H    4.999045   3.418434   3.859878   3.390718   2.145972
    20  H    2.643637   2.162086   3.387352   3.856191   3.364448
    21  Cl   4.516275   5.246294   5.431703   6.776489   7.784755
    22  Cl   6.912700   4.563624   4.017369   2.724662   1.754750
                   11         12         13         14         15
    11  C    0.000000
    12  C    1.391165   0.000000
    13  H    5.104291   4.153584   0.000000
    14  H    7.642308   6.271865   4.271094   0.000000
    15  H    6.370620   4.999334   4.936804   2.478851   0.000000
    16  H    3.972136   2.644352   4.306134   4.278540   2.446262
    17  H    3.855726   3.387599   1.944687   6.033389   6.139747
    18  H    3.390804   3.860505   4.387508   8.361157   8.068965
    19  H    1.082769   2.153280   6.140137   8.372258   6.848841
    20  H    2.120728   1.078930   4.724003   6.048552   4.405680
    21  Cl   7.684334   6.523477   2.819652   2.859666   4.857320
    22  Cl   2.724577   4.017556   6.645031   9.986635   9.001770
                   16         17         18         19         20
    16  H    0.000000
    17  H    4.727919   0.000000
    18  H    6.149280   2.442823   0.000000
    19  H    4.402718   4.938426   4.282381   0.000000
    20  H    1.959487   4.301798   4.938889   2.443238   0.000000
    21  Cl   5.595147   4.741064   7.172848   8.646983   6.775057
    22  Cl   6.658457   4.845020   2.861869   2.861488   4.845296
                   21         22
    21  Cl   0.000000
    22  Cl   9.448683   0.000000
 Stoichiometry    C12H8Cl2
 Framework group  C1[X(C12H8Cl2)]
 Deg. of freedom    60
 Full point group                 C1      NOp   1
 Largest Abelian subgroup         C1      NOp   1
 Largest concise Abelian subgroup C1      NOp   1
                         Standard orientation:                         
 ---------------------------------------------------------------------
 Center     Atomic      Atomic             Coordinates (Angstroms)
 Number     Number       Type             X           Y           Z
 ---------------------------------------------------------------------
      1          6           0       -0.901352    0.553340    0.000001
      2          6           0       -1.815469   -0.509417   -0.000001
      3          6           0       -3.183275   -0.263010   -0.000001
      4          6           0       -3.688160    1.030154    0.000001
      5          6           0       -2.788893    2.089866    0.000003
      6          6           0       -1.415615    1.858668    0.000003
      7          6           0        0.588930    0.291692    0.000000
      8          6           0        1.100886   -1.014411    0.000004
      9          6           0        2.469967   -1.261142    0.000004
     10          6           0        3.355816   -0.192160   -0.000000
     11          6           0        2.884881    1.113902   -0.000004
     12          6           0        1.513328    1.346674   -0.000004
     13          1           0       -1.478687   -1.534317   -0.000003
     14          1           0       -4.756902    1.203483    0.000001
     15          1           0       -3.166602    3.104969    0.000005
     16          1           0       -0.752414    2.710129    0.000005
     17          1           0        0.437578   -1.865582    0.000007
     18          1           0        2.845562   -2.276674    0.000008
     19          1           0        3.582740    1.941780   -0.000008
     20          1           0        1.177691    2.372071   -0.000008
     21         17           0       -4.297068   -1.618970   -0.000002
     22         17           0        5.084408   -0.494017   -0.000000
 ---------------------------------------------------------------------
 Rotational constants (GHZ):           1.5660628           0.2093470           0.1846619
 Standard basis: 6-311+G(d,p) (5D, 7F)
 There are   386 symmetry adapted cartesian basis functions of A   symmetry.
 There are   372 symmetry adapted basis functions of A   symmetry.
   372 basis functions,   602 primitive gaussians,   386 cartesian basis functions
    57 alpha electrons       57 beta electrons
       nuclear repulsion energy       932.3339979125 Hartrees.
 NAtoms=   22 NActive=   22 NUniq=   22 SFac= 1.00D+00 NAtFMM=   60 NAOKFM=F Big=F
 Integral buffers will be    131072 words long.
 Raffenetti 2 integral format.
 Two-electron integral symmetry is turned on.
 One-electron integrals computed using PRISM.
 NBasis=   372 RedAO= T EigKep=  1.27D-06  NBF=   372
 NBsUse=   368 1.00D-06 EigRej=  7.37D-07 NBFU=   368
 Initial guess from the checkpoint file:  "/scratch/pkc/Gau-3178.chk"
 B after Tr=    -0.000000    0.000000   -0.000000
         Rot=    0.999999   -0.000000    0.000000   -0.001091 Ang=  -0.13 deg.
 ExpMin= 4.38D-02 ExpMax= 1.06D+05 ExpMxC= 3.62D+03 IAcc=3 IRadAn=         5 AccDes= 0.00D+00
 Harris functional with IExCor=  402 and IRadAn=       5 diagonalized for initial guess.
 HarFok:  IExCor=  402 AccDes= 0.00D+00 IRadAn=         5 IDoV= 1 UseB2=F ITyADJ=14
 ICtDFT=  3500011 ScaDFX=  1.000000  1.000000  1.000000  1.000000
 FoFCou: FMM=F IPFlag=           0 FMFlag=      100000 FMFlg1=           0
         NFxFlg=           0 DoJE=T BraDBF=F KetDBF=T FulRan=T
         wScrn=  0.000000 ICntrl=       500 IOpCl=  0 I1Cent=   200000004 NGrid=           0
         NMat0=    1 NMatS0=      1 NMatT0=    0 NMatD0=    1 NMtDS0=    0 NMtDT0=    0
 Petite list used in FoFCou.
 Requested convergence on RMS density matrix=1.00D-08 within  32 cycles.
 Requested convergence on MAX density matrix=1.00D-06.
 Requested convergence on             energy=1.00D-06.
 No special actions if energy rises.
 SCF Done:  E(RB3LYP) =  -1382.66465252     A.U. after   14 cycles
            NFock= 14  Conv=0.29D-08     -V/T= 2.0031
 QCSCF skips out because SCF is already converged.
 Calling FoFJK, ICntrl=      2127 FMM=F ISym2X=0 I1Cent= 0 IOpClX= 0 NMat=1 NMatS=1 NMatT=0.
 ***** Axes restored to original set *****
 -------------------------------------------------------------------
 Center     Atomic                   Forces (Hartrees/Bohr)
 Number     Number              X              Y              Z
 -------------------------------------------------------------------
      1        6          -0.006716638   -0.009821396    0.000368289
      2        6           0.001035067    0.001556613   -0.000048624
      3        6          -0.002357130   -0.001806254    0.000437319
      4        6           0.001755527    0.002947511   -0.000024802
      5        6          -0.001642872   -0.002285750    0.000111942
      6        6           0.001889941    0.001757533   -0.000292560
      7        6           0.006431341    0.010684070   -0.000112299
      8        6          -0.002841421   -0.000755719    0.000794221
      9        6           0.001823620   -0.000240989   -0.000646083
     10        6          -0.000292352   -0.000424382    0.000016599
     11        6          -0.001167114    0.001443982    0.000655747
     12        6           0.000701960   -0.002881800   -0.000772500
     13        1           0.000958449   -0.000263676   -0.000365276
     14        1           0.000083343   -0.000373753   -0.000097656
     15        1          -0.000716629    0.000166757    0.000267433
     16        1          -0.001142181    0.000265288    0.000426101
     17        1           0.001363181   -0.000442995   -0.000532361
     18        1           0.000167826    0.000238657   -0.000010446
     19        1           0.000108849    0.000234878    0.000008229
     20        1          -0.000982618    0.001178265    0.000545043
     21       17           0.002058628   -0.000295461   -0.000733702
     22       17          -0.000518778   -0.000881380    0.000005385
 -------------------------------------------------------------------
 Cartesian Forces:  Max     0.010684070 RMS     0.002390969

 GradGradGradGradGradGradGradGradGradGradGradGradGradGradGradGradGradGrad
 Berny optimization.
 Using GEDIIS/GDIIS optimizer.
 FormGI is forming the generalized inverse of G from B-inverse, IUseBI=4.
 Internal  Forces:  Max     0.009457997 RMS     0.001105488
 Search for a local minimum.
 Step number   2 out of a maximum of  121
 All quantities printed in internal units (Hartrees-Bohrs-Radians)
 Mixed Optimization -- RFO/linear search
 Update second derivatives using D2CorX and points    1    2
 DE= -4.20D-03 DEPred=-3.85D-03 R= 1.09D+00
 TightC=F SS=  1.41D+00  RLast= 1.62D-01 DXNew= 5.0454D-01 4.8588D-01
 Trust test= 1.09D+00 RLast= 1.62D-01 DXMaxT set to 4.86D-01
 ITU=  1  0
 Use linear search instead of GDIIS.
     Eigenvalues ---    0.00237   0.01479   0.01483   0.02070   0.02070
     Eigenvalues ---    0.02070   0.02070   0.02070   0.02070   0.02070
     Eigenvalues ---    0.02070   0.02070   0.02070   0.02070   0.02070
     Eigenvalues ---    0.02070   0.02070   0.02070   0.02070   0.15508
     Eigenvalues ---    0.16000   0.16000   0.16000   0.16000   0.16000
     Eigenvalues ---    0.16000   0.16133   0.20332   0.22001   0.22105
     Eigenvalues ---    0.23188   0.23495   0.23900   0.24991   0.25000
     Eigenvalues ---    0.25000   0.25063   0.27030   0.29538   0.29848
     Eigenvalues ---    0.36871   0.37230   0.37230   0.37230   0.37230
     Eigenvalues ---    0.37230   0.37230   0.37844   0.41165   0.41241
     Eigenvalues ---    0.41633   0.42360   0.45025   0.45389   0.45389
     Eigenvalues ---    0.45389   0.45389   0.45389   0.45389   0.49461
 RFO step:  Lambda=-4.61495267D-04 EMin= 2.36824243D-03
 Quartic linear search produced a step of  0.12772.
 Iteration  1 RMS(Cart)=  0.00692075 RMS(Int)=  0.00001793
 Iteration  2 RMS(Cart)=  0.00002216 RMS(Int)=  0.00000550
 Iteration  3 RMS(Cart)=  0.00000000 RMS(Int)=  0.00000550
 Variable       Old X    -DE/DX   Delta X   Delta X   Delta X     New X
                                 (Linear)    (Quad)   (Total)
    R1        2.64903   0.00176   0.00010   0.00426   0.00436   2.65339
    R2        2.65124   0.00073   0.00038   0.00143   0.00182   2.65306
    R3        2.85930  -0.00946  -0.00650  -0.03369  -0.04019   2.81911
    R4        2.62639  -0.00064  -0.00279   0.00004  -0.00275   2.62364
    R5        2.03866   0.00079   0.00213   0.00120   0.00333   2.04200
    R6        2.62337   0.00140  -0.00318   0.00538   0.00220   2.62557
    R7        3.31601   0.00218  -0.00127   0.00902   0.00775   3.32376
    R8        2.62643   0.00191  -0.00279   0.00634   0.00354   2.62997
    R9        2.04602  -0.00028   0.00307  -0.00253   0.00054   2.04655
   R10        2.63164  -0.00120  -0.00212  -0.00191  -0.00403   2.62761
   R11        2.04676   0.00054   0.00316  -0.00011   0.00305   2.04980
   R12        2.03952   0.00122   0.00224   0.00246   0.00470   2.04422
   R13        2.65101   0.00081   0.00035   0.00171   0.00208   2.65309
   R14        2.65067   0.00085   0.00031   0.00182   0.00214   2.65282
   R15        2.62887  -0.00018  -0.00248   0.00091  -0.00157   2.62729
   R16        2.03922   0.00147   0.00220   0.00322   0.00542   2.04464
   R17        2.62356   0.00140  -0.00316   0.00530   0.00214   2.62569
   R18        2.04613  -0.00012   0.00308  -0.00207   0.00101   2.04714
   R19        2.62364   0.00131  -0.00314   0.00507   0.00191   2.62556
   R20        3.31600   0.00102  -0.00127   0.00461   0.00334   3.31934
   R21        2.62892  -0.00019  -0.00247   0.00087  -0.00160   2.62732
   R22        2.04614  -0.00011   0.00308  -0.00202   0.00106   2.04720
   R23        2.03888   0.00161   0.00216   0.00367   0.00583   2.04471
    A1        2.05594  -0.00096  -0.00491  -0.00200  -0.00690   2.04904
    A2        2.10735   0.00093   0.00165   0.00347   0.00512   2.11247
    A3        2.11989   0.00003   0.00326  -0.00147   0.00178   2.12168
    A4        2.10291   0.00042   0.00109   0.00157   0.00266   2.10557
    A5        2.11376   0.00051   0.00247   0.00252   0.00499   2.11875
    A6        2.06652  -0.00094  -0.00356  -0.00409  -0.00765   2.05887
    A7        2.12126   0.00051   0.00343   0.00078   0.00421   2.12547
    A8        2.08022  -0.00080  -0.00181  -0.00281  -0.00462   2.07559
    A9        2.08171   0.00030  -0.00162   0.00204   0.00042   2.08212
   A10        2.06569  -0.00128  -0.00367  -0.00400  -0.00767   2.05802
   A11        2.10380   0.00035   0.00120   0.00034   0.00154   2.10535
   A12        2.11369   0.00093   0.00246   0.00366   0.00613   2.11982
   A13        2.10768   0.00065   0.00170   0.00225   0.00394   2.11162
   A14        2.08170   0.00026  -0.00162   0.00341   0.00179   2.08349
   A15        2.09380  -0.00091  -0.00008  -0.00566  -0.00573   2.08807
   A16        2.11289   0.00065   0.00236   0.00140   0.00376   2.11665
   A17        2.10455  -0.00006   0.00130  -0.00033   0.00096   2.10552
   A18        2.06575  -0.00059  -0.00366  -0.00106  -0.00472   2.06102
   A19        2.11816   0.00119   0.00304   0.00393   0.00695   2.12511
   A20        2.11652   0.00018   0.00283  -0.00047   0.00235   2.11887
   A21        2.04850  -0.00137  -0.00586  -0.00346  -0.00930   2.03921
   A22        2.12267   0.00102   0.00361   0.00274   0.00636   2.12903
   A23        2.10604  -0.00007   0.00149  -0.00021   0.00127   2.10731
   A24        2.05448  -0.00095  -0.00510  -0.00253  -0.00763   2.04684
   A25        2.08448  -0.00009  -0.00127   0.00033  -0.00095   2.08354
   A26        2.10335  -0.00023   0.00114  -0.00236  -0.00122   2.10213
   A27        2.09536   0.00031   0.00012   0.00203   0.00216   2.09752
   A28        2.10354  -0.00052   0.00117  -0.00273  -0.00159   2.10195
   A29        2.08990   0.00027  -0.00057   0.00140   0.00084   2.09074
   A30        2.08974   0.00025  -0.00059   0.00133   0.00075   2.09050
   A31        2.08497  -0.00021  -0.00120  -0.00033  -0.00155   2.08343
   A32        2.09514   0.00035   0.00010   0.00217   0.00227   2.09741
   A33        2.10307  -0.00014   0.00111  -0.00183  -0.00072   2.10235
   A34        2.12221   0.00116   0.00355   0.00345   0.00702   2.12922
   A35        2.10574  -0.00031   0.00145  -0.00173  -0.00029   2.10545
   A36        2.05524  -0.00085  -0.00500  -0.00172  -0.00673   2.04851
    D1        0.00000  -0.00000  -0.00000  -0.00000  -0.00000  -0.00000
    D2        3.14159  -0.00000   0.00000  -0.00000  -0.00000   3.14159
    D3       -3.14159  -0.00000  -0.00000  -0.00000  -0.00000   3.14159
    D4       -0.00000  -0.00000   0.00000  -0.00000  -0.00000  -0.00000
    D5       -0.00000   0.00000   0.00000   0.00000   0.00000   0.00000
    D6        3.14159  -0.00000  -0.00000  -0.00000  -0.00000   3.14159
    D7        3.14159   0.00000   0.00000   0.00000   0.00000  -3.14159
    D8       -0.00000  -0.00000  -0.00000  -0.00000  -0.00000  -0.00000
    D9       -0.00001  -0.00000  -0.00000  -0.00001  -0.00001  -0.00002
   D10        3.14159  -0.00000  -0.00000  -0.00001  -0.00001   3.14157
   D11        3.14159  -0.00000  -0.00000  -0.00001  -0.00001   3.14157
   D12       -0.00001  -0.00000  -0.00000  -0.00001  -0.00001  -0.00002
   D13       -0.00000   0.00000  -0.00000   0.00000   0.00000   0.00000
   D14       -3.14159  -0.00000   0.00000  -0.00000  -0.00000   3.14159
   D15       -3.14159   0.00000  -0.00000   0.00000   0.00000  -3.14159
   D16        0.00000  -0.00000  -0.00000  -0.00000  -0.00000   0.00000
   D17       -0.00000   0.00000   0.00000  -0.00000   0.00000  -0.00000
   D18        3.14159  -0.00000   0.00000  -0.00000  -0.00000   3.14159
   D19        3.14159   0.00000   0.00000   0.00000   0.00000  -3.14159
   D20       -0.00000   0.00000  -0.00000   0.00000   0.00000   0.00000
   D21        0.00000  -0.00000  -0.00000   0.00000  -0.00000   0.00000
   D22       -3.14159  -0.00000  -0.00000  -0.00000  -0.00000  -3.14159
   D23        3.14159   0.00000  -0.00000   0.00000   0.00000  -3.14159
   D24        0.00000  -0.00000  -0.00000  -0.00000  -0.00000   0.00000
   D25        0.00000  -0.00000   0.00000  -0.00000  -0.00000  -0.00000
   D26       -3.14159   0.00000   0.00000   0.00000   0.00000  -3.14159
   D27        3.14159   0.00000   0.00000   0.00000   0.00000   3.14159
   D28       -0.00000   0.00000   0.00000   0.00000   0.00000   0.00000
   D29       -3.14159  -0.00000   0.00000  -0.00000  -0.00000  -3.14159
   D30        0.00000  -0.00000  -0.00000  -0.00000  -0.00000  -0.00000
   D31        0.00000  -0.00000  -0.00000  -0.00000  -0.00000   0.00000
   D32       -3.14159  -0.00000  -0.00000  -0.00000  -0.00000   3.14159
   D33        3.14159   0.00000  -0.00000   0.00000   0.00000   3.14159
   D34       -0.00000  -0.00000  -0.00000  -0.00000  -0.00000  -0.00000
   D35       -0.00000   0.00000   0.00000  -0.00000  -0.00000  -0.00000
   D36        3.14159  -0.00000   0.00000  -0.00000  -0.00000   3.14159
   D37       -0.00000   0.00000   0.00000   0.00000   0.00000  -0.00000
   D38        3.14159   0.00000  -0.00000   0.00000   0.00000   3.14159
   D39        3.14159   0.00000   0.00000   0.00000   0.00000  -3.14159
   D40       -0.00000   0.00000   0.00000   0.00000   0.00000   0.00000
   D41        0.00000  -0.00000   0.00000  -0.00000  -0.00000  -0.00000
   D42       -3.14159  -0.00000  -0.00000   0.00000  -0.00000   3.14159
   D43       -3.14159  -0.00000   0.00000  -0.00000  -0.00000  -3.14159
   D44        0.00000  -0.00000  -0.00000  -0.00000  -0.00000   0.00000
   D45        0.00000   0.00000   0.00000   0.00000   0.00000   0.00000
   D46       -3.14159  -0.00000  -0.00000  -0.00000  -0.00000  -3.14159
   D47       -3.14159  -0.00000   0.00000  -0.00000  -0.00000  -3.14159
   D48        0.00000  -0.00000  -0.00000  -0.00000  -0.00000   0.00000
   D49       -0.00000   0.00000  -0.00000   0.00000   0.00000  -0.00000
   D50       -3.14159   0.00000  -0.00000   0.00000   0.00000  -3.14159
   D51        3.14159   0.00000   0.00000   0.00000   0.00000   3.14159
   D52       -0.00000   0.00000   0.00000   0.00000   0.00000   0.00000
         Item               Value     Threshold  Converged?
 Maximum Force            0.009458     0.000450     NO 
 RMS     Force            0.001105     0.000300     NO 
 Maximum Displacement     0.025138     0.001800     NO 
 RMS     Displacement     0.006927     0.001200     NO 
 Predicted change in Energy=-2.880972D-04
 GradGradGradGradGradGradGradGradGradGradGradGradGradGradGradGradGradGrad

                          Input orientation:                          
 ---------------------------------------------------------------------
 Center     Atomic      Atomic             Coordinates (Angstroms)
 Number     Number       Type             X           Y           Z
 ---------------------------------------------------------------------
      1          6           0       -1.697487   -2.159477    0.092530
      2          6           0       -0.361808   -2.100894   -0.336504
      3          6           0        0.328780   -0.896463   -0.337819
      4          6           0       -0.265088    0.287992    0.080274
      5          6           0       -1.588834    0.237971    0.506984
      6          6           0       -2.293865   -0.960481    0.514180
      7          6           0       -2.447848   -3.448827    0.097589
      8          6           0       -1.855577   -4.650184   -0.323176
      9          6           0       -2.550479   -5.854364   -0.320393
     10          6           0       -3.871285   -5.878140    0.110303
     11          6           0       -4.494233   -4.711018    0.534746
     12          6           0       -3.783334   -3.516236    0.524926
     13          1           0        0.160162   -2.984636   -0.674434
     14          1           0        0.291162    1.217173    0.071522
     15          1           0       -2.075800    1.148781    0.838466
     16          1           0       -3.320359   -0.945483    0.855172
     17          1           0       -0.829280   -4.670750   -0.665170
     18          1           0       -2.068804   -6.766820   -0.650461
     19          1           0       -5.524215   -4.734399    0.869699
     20          1           0       -4.299863   -2.627256    0.862069
     21         17           0        2.000387   -0.874969   -0.884488
     22         17           0       -4.759447   -7.393547    0.118306
 ---------------------------------------------------------------------
                    Distance matrix (angstroms):
                    1          2          3          4          5
     1  C    0.000000
     2  C    1.404115   0.000000
     3  C    2.426141   1.388369   0.000000
     4  C    2.835846   2.426899   1.389394   0.000000
     5  C    2.435432   2.772608   2.382829   1.391721   0.000000
     6  C    1.403940   2.399385   2.758308   2.421341   1.390470
     7  C    1.491808   2.521294   3.796551   4.327650   3.807622
     8  C    2.530104   2.954726   4.343046   5.203654   4.965317
     9  C    3.814484   4.345006   5.733342   6.565979   6.223010
[...]
     17          1           0        0.485143   -1.561083    1.159464
     18          1           0        2.915576   -1.979051    1.080261
     19          1           0        3.475074    1.663449   -1.114789
     20          1           0        1.041570    2.071853   -1.061311
     21         17           0       -4.279389   -1.601250   -0.315664
     22         17           0        5.065817   -0.475291   -0.067626
 ---------------------------------------------------------------------
 Rotational constants (GHZ):           1.5557995           0.2089942           0.1884845

 **********************************************************************

            Population analysis using the SCF Density.

 **********************************************************************

 Orbital symmetries:
       Occupied  (A) (A) (A) (A) (A) (A) (A) (A) (A) (A) (A) (A)
                 (A) (A) (A) (A) (A) (A) (A) (A) (A) (A) (A) (A)
                 (A) (A) (A) (A) (A) (A) (A) (A) (A) (A) (A) (A)
                 (A) (A) (A) (A) (A) (A) (A) (A) (A) (A) (A) (A)
                 (A) (A) (A) (A) (A) (A) (A) (A) (A)
       Virtual   (A) (A) (A) (A) (A) (A) (A) (A) (A) (A) (A) (A)
                 (A) (A) (A) (A) (A) (A) (A) (A) (A) (A) (A) (A)
                 (A) (A) (A) (A) (A) (A) (A) (A) (A) (A) (A) (A)
                 (A) (A) (A) (A) (A) (A) (A) (A) (A) (A) (A) (A)
                 (A) (A) (A) (A) (A) (A) (A) (A) (A) (A) (A) (A)
                 (A) (A) (A) (A) (A) (A) (A) (A) (A) (A) (A) (A)
                 (A) (A) (A) (A) (A) (A) (A) (A) (A) (A) (A) (A)
                 (A) (A) (A) (A) (A) (A) (A) (A) (A) (A) (A) (A)
                 (A) (A) (A) (A) (A) (A) (A) (A) (A) (A) (A) (A)
                 (A) (A) (A) (A) (A) (A) (A) (A) (A) (A) (A) (A)
                 (A) (A) (A) (A) (A) (A) (A) (A) (A) (A) (A) (A)
                 (A) (A) (A) (A) (A) (A) (A) (A) (A) (A) (A) (A)
                 (A) (A) (A) (A) (A) (A) (A) (A) (A) (A) (A) (A)
                 (A) (A) (A) (A) (A) (A) (A) (A) (A) (A) (A) (A)
                 (A) (A) (A) (A) (A) (A) (A) (A) (A) (A) (A) (A)
                 (A) (A) (A) (A) (A) (A) (A) (A) (A) (A) (A) (A)
                 (A) (A) (A) (A) (A) (A) (A) (A) (A) (A) (A) (A)
                 (A) (A) (A) (A) (A) (A) (A) (A) (A) (A) (A) (A)
                 (A) (A) (A) (A) (A) (A) (A) (A) (A) (A) (A) (A)
                 (A) (A) (A) (A) (A) (A) (A) (A) (A) (A) (A) (A)
                 (A) (A) (A) (A) (A) (A) (A) (A) (A) (A) (A) (A)
                 (A) (A) (A) (A) (A) (A) (A) (A) (A) (A) (A) (A)
                 (A) (A) (A) (A) (A) (A) (A) (A) (A) (A) (A) (A)
                 (A) (A) (A) (A) (A) (A) (A) (A) (A) (A) (A) (A)
                 (A) (A) (A) (A) (A) (A) (A) (A) (A) (A) (A) (A)
                 (A) (A) (A) (A) (A) (A) (A) (A) (A) (A) (A) (A)
                 (A) (A)
 The electronic state is 1-A.
 Alpha  occ. eigenvalues -- -101.56061-101.55993 -10.24968 -10.24937 -10.21017
 Alpha  occ. eigenvalues --  -10.20727 -10.19982 -10.19971 -10.19867 -10.19856
 Alpha  occ. eigenvalues --  -10.19851 -10.19823 -10.19764 -10.19391  -9.47518
 Alpha  occ. eigenvalues --   -9.47451  -7.23975  -7.23909  -7.23003  -7.22968
 Alpha  occ. eigenvalues --   -7.22936  -7.22902  -0.91010  -0.90241  -0.86444
 Alpha  occ. eigenvalues --   -0.84274  -0.79004  -0.77571  -0.75386  -0.73336
 Alpha  occ. eigenvalues --   -0.64657  -0.64200  -0.61699  -0.59681  -0.54855
 Alpha  occ. eigenvalues --   -0.51673  -0.50158  -0.48855  -0.47532  -0.46505
 Alpha  occ. eigenvalues --   -0.45065  -0.44642  -0.44341  -0.41465  -0.40611
 Alpha  occ. eigenvalues --   -0.40052  -0.38509  -0.37135  -0.36990  -0.35443
 Alpha  occ. eigenvalues --   -0.33912  -0.32383  -0.32342  -0.28907  -0.28073
 Alpha  occ. eigenvalues --   -0.26482  -0.24567
 Alpha virt. eigenvalues --   -0.05826  -0.03826  -0.03541  -0.00950  -0.00785
 Alpha virt. eigenvalues --    0.00247   0.01003   0.01169   0.01247   0.02826
 Alpha virt. eigenvalues --    0.02868   0.04082   0.04444   0.04686   0.05122
 Alpha virt. eigenvalues --    0.05575   0.06198   0.07336   0.07435   0.08038
 Alpha virt. eigenvalues --    0.08666   0.08882   0.09699   0.10104   0.10709
 Alpha virt. eigenvalues --    0.10865   0.11197   0.11630   0.12087   0.12683
 Alpha virt. eigenvalues --    0.13151   0.13282   0.13586   0.14156   0.14358
 Alpha virt. eigenvalues --    0.15238   0.15425   0.15970   0.16270   0.16722
 Alpha virt. eigenvalues --    0.17140   0.17637   0.17943   0.18669   0.18960
 Alpha virt. eigenvalues --    0.19606   0.19752   0.20068   0.20306   0.20398
 Alpha virt. eigenvalues --    0.21227   0.21365   0.21716   0.22083   0.22164
 Alpha virt. eigenvalues --    0.23215   0.23726   0.24079   0.24153   0.24374
 Alpha virt. eigenvalues --    0.25177   0.25582   0.26634   0.26988   0.27729
 Alpha virt. eigenvalues --    0.27998   0.28374   0.28524   0.29454   0.29498
 Alpha virt. eigenvalues --    0.29975   0.30443   0.30527   0.31184   0.32144
 Alpha virt. eigenvalues --    0.33245   0.33675   0.35009   0.35955   0.36735
 Alpha virt. eigenvalues --    0.43415   0.43931   0.44547   0.45436   0.46078
 Alpha virt. eigenvalues --    0.46250   0.46772   0.48474   0.50911   0.51027
 Alpha virt. eigenvalues --    0.51355   0.51587   0.53149   0.53783   0.55193
 Alpha virt. eigenvalues --    0.55481   0.56268   0.57233   0.57926   0.58139
 Alpha virt. eigenvalues --    0.59025   0.59958   0.60203   0.60806   0.60988
 Alpha virt. eigenvalues --    0.62862   0.64260   0.64941   0.65656   0.66101
 Alpha virt. eigenvalues --    0.66600   0.67483   0.67852   0.68994   0.69047
 Alpha virt. eigenvalues --    0.69939   0.70356   0.70967   0.71409   0.73651
 Alpha virt. eigenvalues --    0.74808   0.76908   0.77207   0.78012   0.81654
 Alpha virt. eigenvalues --    0.81795   0.82863   0.83747   0.83902   0.84663
 Alpha virt. eigenvalues --    0.85092   0.85549   0.85917   0.86282   0.86484
 Alpha virt. eigenvalues --    0.86879   0.88112   0.88816   0.89365   0.89812
 Alpha virt. eigenvalues --    0.90026   0.92062   0.93205   0.94980   0.95158
 Alpha virt. eigenvalues --    0.95641   0.96647   0.97857   0.99143   1.00109
 Alpha virt. eigenvalues --    1.02391   1.03169   1.04800   1.05724   1.07419
 Alpha virt. eigenvalues --    1.09148   1.10036   1.11427   1.12926   1.13953
 Alpha virt. eigenvalues --    1.17267   1.18748   1.20443   1.24709   1.28475
 Alpha virt. eigenvalues --    1.28745   1.30922   1.31465   1.33848   1.37641
 Alpha virt. eigenvalues --    1.44948   1.47282   1.48274   1.49444   1.50553
 Alpha virt. eigenvalues --    1.51220   1.52455   1.52966   1.55311   1.56889
 Alpha virt. eigenvalues --    1.57778   1.58292   1.59989   1.61647   1.62490
 Alpha virt. eigenvalues --    1.65001   1.67305   1.68125   1.70184   1.71336
 Alpha virt. eigenvalues --    1.73255   1.73607   1.74441   1.75874   1.76525
 Alpha virt. eigenvalues --    1.79627   1.86941   1.88169   1.89137   1.89580
 Alpha virt. eigenvalues --    1.90430   1.90679   1.91628   1.93648   1.94387
 Alpha virt. eigenvalues --    1.95624   1.95922   1.96814   1.98359   1.99996
 Alpha virt. eigenvalues --    2.00483   2.02837   2.03531   2.05010   2.06938
 Alpha virt. eigenvalues --    2.07612   2.10605   2.18173   2.20008   2.23509
 Alpha virt. eigenvalues --    2.26207   2.27227   2.28337   2.29297   2.32751
 Alpha virt. eigenvalues --    2.33369   2.37614   2.38799   2.39886   2.40952
 Alpha virt. eigenvalues --    2.41547   2.42090   2.46361   2.51896   2.53515
 Alpha virt. eigenvalues --    2.54851   2.61273   2.61708   2.64323   2.65347
 Alpha virt. eigenvalues --    2.65420   2.66077   2.69089   2.70356   2.70633
 Alpha virt. eigenvalues --    2.72924   2.73018   2.73732   2.75064   2.76688
 Alpha virt. eigenvalues --    2.78415   2.78791   2.79165   2.79937   2.81877
 Alpha virt. eigenvalues --    2.83945   2.85134   2.85320   2.86661   2.91046
 Alpha virt. eigenvalues --    2.91478   2.92446   2.98040   3.02146   3.06944
 Alpha virt. eigenvalues --    3.08806   3.12882   3.16584   3.17970   3.20331
 Alpha virt. eigenvalues --    3.22789   3.33223   3.35191   3.36489   3.42100
 Alpha virt. eigenvalues --    3.48005   3.50083   3.55491   3.60257   3.62663
 Alpha virt. eigenvalues --    3.71868   3.77588   3.82412   3.96957   4.00434
 Alpha virt. eigenvalues --    4.10596   4.12250   4.14319   4.15319   4.44966
 Alpha virt. eigenvalues --    4.80937   4.84086   9.77233   9.77990  23.48883
 Alpha virt. eigenvalues --   23.64201  23.90238  23.90682  23.94003  23.94310
 Alpha virt. eigenvalues --   24.01985  24.05171  24.06891  24.08349  24.15261
 Alpha virt. eigenvalues --   24.16858  25.82914  25.83037  26.12056  26.12874
 Alpha virt. eigenvalues --   26.58843  26.60446 215.76311 215.77094
          Condensed to atoms (all electrons):
               1          2          3          4          5          6
     1  C   17.162272   3.987282  -3.511715  -1.473910  -0.660812  -4.822465
     2  C    3.987282  31.767146  -3.645912  -8.564984  -0.868519 -10.017094
     3  C   -3.511715  -3.645912  14.964439  -1.619430  -0.435702  -1.536292
     4  C   -1.473910  -8.564984  -1.619430  14.734898   0.520458   2.114509
     5  C   -0.660812  -0.868519  -0.435702   0.520458   7.735577  -0.971530
     6  C   -4.822465 -10.017094  -1.536292   2.114509  -0.971530  18.005079
     7  C   -3.939698  -7.224979   1.923616   0.827447   0.608685   1.963033
     8  C    0.428371   2.751388  -0.474362  -0.563654   0.423966  -1.295571
     9  C    0.347145   0.465326  -0.274578  -0.103293   0.019440  -0.165839
    10  C   -0.599892  -0.363196   0.214510  -0.009089   0.006266   0.284312
    11  C    0.670553   0.257570  -0.209029  -0.011886   0.044326  -0.122066
    12  C   -1.873038  -2.420017   0.839296   0.588950  -0.576009   2.647465
    13  H    0.011441   0.100161   0.077822   0.068988  -0.014352   0.032913
    14  H    0.041377   0.001636   0.070797   0.295086   0.002958  -0.063221
    15  H    0.001784  -0.063412  -0.005703   0.000625   0.382908   0.017716
    16  H    0.022591   0.002270   0.004204  -0.006172   0.002546   0.312288
    17  H    0.011411   0.113877  -0.023573  -0.001268  -0.002836  -0.034508
    18  H    0.009027   0.004347  -0.001114   0.000103  -0.000301  -0.001290
    19  H    0.014006   0.000916  -0.000636   0.000133  -0.000192  -0.001045
    20  H   -0.014961  -0.015045  -0.013897   0.005440   0.000368   0.063100
    21  Cl  -0.335434   0.839261  -1.149677  -0.156789   0.145651   0.036961
    22  Cl  -0.065141  -0.022987   0.009057  -0.001300   0.002309   0.011144
               7          8          9         10         11         12
     1  C   -3.939698   0.428371   0.347145  -0.599892   0.670553  -1.873038
     2  C   -7.224979   2.751388   0.465326  -0.363196   0.257570  -2.420017
     3  C    1.923616  -0.474362  -0.274578   0.214510  -0.209029   0.839296
     4  C    0.827447  -0.563654  -0.103293  -0.009089  -0.011886   0.588950
     5  C    0.608685   0.423966   0.019440   0.006266   0.044326  -0.576009
     6  C    1.963033  -1.295571  -0.165839   0.284312  -0.122066   2.647465
     7  C   22.147277  -4.396687   0.389241  -5.326132   0.276000  -2.339426
     8  C   -4.396687  25.155807  -3.279812   0.440346  -0.532371 -12.603590
     9  C    0.389241  -3.279812  18.563287  -2.041404  -7.331836  -0.146913
    10  C   -5.326132   0.440346  -2.041404  15.464317  -2.283554   0.405972
    11  C    0.276000  -0.532371  -7.331836  -2.283554  18.075454  -2.380969
    12  C   -2.339426 -12.603590  -0.146913   0.405972  -2.380969  23.860174
    13  H    0.035179   0.080646  -0.000450   0.001696   0.001053  -0.041154
    14  H    0.006057   0.000140   0.000154  -0.000023   0.000050  -0.001585
    15  H    0.013450  -0.001971  -0.000223  -0.000009   0.000123   0.001054
    16  H   -0.032456  -0.047774   0.004102  -0.000720   0.005032   0.079742
    17  H   -0.001127   0.306004  -0.014287  -0.016444  -0.019101   0.025948
    18  H   -0.027703   0.008449   0.229946   0.090527   0.058964  -0.016821
    19  H   -0.036924  -0.016014   0.055995   0.094195   0.242767   0.000556
    20  H    0.022414   0.024593  -0.024676  -0.012007   0.002430   0.306993
    21  Cl  -0.105167   0.037196   0.014693   0.001362   0.000434  -0.022987
    22  Cl  -0.161762   0.295419   0.076800  -1.201710   0.021528   0.321834
              13         14         15         16         17         18
     1  C    0.011441   0.041377   0.001784   0.022591   0.011411   0.009027
     2  C    0.100161   0.001636  -0.063412   0.002270   0.113877   0.004347
     3  C    0.077822   0.070797  -0.005703   0.004204  -0.023573  -0.001114
     4  C    0.068988   0.295086   0.000625  -0.006172  -0.001268   0.000103
     5  C   -0.014352   0.002958   0.382908   0.002546  -0.002836  -0.000301
     6  C    0.032913  -0.063221   0.017716   0.312288  -0.034508  -0.001290
     7  C    0.035179   0.006057   0.013450  -0.032456  -0.001127  -0.027703
     8  C    0.080646   0.000140  -0.001971  -0.047774   0.306004   0.008449
     9  C   -0.000450   0.000154  -0.000223   0.004102  -0.014287   0.229946
    10  C    0.001696  -0.000023  -0.000009  -0.000720  -0.016444   0.090527
    11  C    0.001053   0.000050   0.000123   0.005032  -0.019101   0.058964
    12  C   -0.041154  -0.001585   0.001054   0.079742   0.025948  -0.016821
    13  H    0.513863  -0.000276   0.000071  -0.000182  -0.000580   0.000031
    14  H   -0.000276   0.512999  -0.007952  -0.000195   0.000001  -0.000000
    15  H    0.000071  -0.007952   0.533238  -0.007258   0.000000   0.000000
    16  H   -0.000182  -0.000195  -0.007258   0.534082   0.000010  -0.000000
    17  H   -0.000580   0.000001   0.000000   0.000010   0.528511  -0.007886
    18  H    0.000031  -0.000000   0.000000  -0.000000  -0.007886   0.515347
    19  H   -0.000000  -0.000000   0.000000   0.000032   0.000066  -0.000315
    20  H    0.000017   0.000001   0.000037  -0.000390  -0.000287   0.000064
    21  Cl  -0.013495  -0.007330   0.000636   0.000307   0.000183  -0.000001
    22  Cl  -0.000095   0.000000  -0.000001  -0.000111   0.000073  -0.011616
              19         20         21         22
     1  C    0.014006  -0.014961  -0.335434  -0.065141
     2  C    0.000916  -0.015045   0.839261  -0.022987
     3  C   -0.000636  -0.013897  -1.149677   0.009057
     4  C    0.000133   0.005440  -0.156789  -0.001300
     5  C   -0.000192   0.000368   0.145651   0.002309
     6  C   -0.001045   0.063100   0.036961   0.011144
     7  C   -0.036924   0.022414  -0.105167  -0.161762
     8  C   -0.016014   0.024593   0.037196   0.295419
     9  C    0.055995  -0.024676   0.014693   0.076800
    10  C    0.094195  -0.012007   0.001362  -1.201710
    11  C    0.242767   0.002430   0.000434   0.021528
    12  C    0.000556   0.306993  -0.022987   0.321834
    13  H   -0.000000   0.000017  -0.013495  -0.000095
    14  H   -0.000000   0.000001  -0.007330   0.000000
    15  H    0.000000   0.000037   0.000636  -0.000001
    16  H    0.000032  -0.000390   0.000307  -0.000111
    17  H    0.000066  -0.000287   0.000183   0.000073
    18  H   -0.000315   0.000064  -0.000001  -0.011616
    19  H    0.515858  -0.008016  -0.000002  -0.011322
    20  H   -0.008016   0.530620  -0.000115   0.000226
    21  Cl  -0.000002  -0.000115  17.337815   0.000058
    22  Cl  -0.011322   0.000226   0.000058  17.363132
 Mulliken charges:
               1
     1  C    0.589806
     2  C   -1.085037
     3  C    0.797880
     4  C   -0.644861
     5  C   -0.365205
     6  C   -0.457599
     7  C    1.379660
     8  C   -0.740520
     9  C   -0.782817
    10  C    0.850679
    11  C   -0.765474
    12  C   -0.655474
    13  H    0.146703
    14  H    0.149325
    15  H    0.134888
    16  H    0.128051
    17  H    0.135814
    18  H    0.150243
    19  H    0.149942
    20  H    0.133091
    21  Cl   0.376439
    22  Cl   0.374465
 Sum of Mulliken charges =  -0.00000
 Mulliken charges with hydrogens summed into heavy atoms:
               1
     1  C    0.589806
     2  C   -0.938334
     3  C    0.797880
     4  C   -0.495536
     5  C   -0.230316
     6  C   -0.329548
     7  C    1.379660
     8  C   -0.604706
     9  C   -0.632574
    10  C    0.850679
    11  C   -0.615532
    12  C   -0.522382
    21  Cl   0.376439
    22  Cl   0.374465
 Electronic spatial extent (au):  <R**2>=           5148.2779
 Charge=              0.0000 electrons
 Dipole moment (field-independent basis, Debye):
    X=             -0.5177    Y=              1.6512    Z=              0.3131  Tot=              1.7586
 Quadrupole moment (field-independent basis, Debye-Ang):
   XX=           -105.0450   YY=            -87.9685   ZZ=            -98.2981
   XY=             -4.5339   XZ=             -1.6357   YZ=             -2.5639
 Traceless Quadrupole moment (field-independent basis, Debye-Ang):
   XX=             -7.9411   YY=              9.1353   ZZ=             -1.1942
   XY=             -4.5339   XZ=             -1.6357   YZ=             -2.5639
 Octapole moment (field-independent basis, Debye-Ang**2):
  XXX=            -34.5157  YYY=              2.3881  ZZZ=             -3.1154  XYY=              0.4772
  XXY=             27.5179  XXZ=              1.7704  XZZ=              6.8227  YZZ=             -5.4013
  YYZ=              2.5871  XYZ=            -11.0854
 Hexadecapole moment (field-independent basis, Debye-Ang**3):
 XXXX=          -5979.3347 YYYY=           -833.0784 ZZZZ=           -211.1163 XXXY=            -62.9341
 XXXZ=            -25.5424 YYYX=             -3.5978 YYYZ=             -0.5391 ZZZX=              6.4937
 ZZZY=             -4.9020 XXYY=          -1074.7108 XXZZ=          -1036.6626 YYZZ=           -180.7694
 XXYZ=            -11.9652 YYXZ=             -6.3744 ZZXY=             12.9981
 N-N= 9.333167886076D+02 E-N=-5.126085973036D+03  KE= 1.378417462306D+03
 1\1\GINC-DAMODAR\FOpt\RB3LYP\6-311+G(d,p)\C12H8Cl2\PKC\14-Mar-2022\0\\
 # opt b3lyp/6-311+g(d,p) scf=xqc\\Title Card Required\\0,1\C,-1.703029
 6846,-2.1603051304,0.0792563833\C,-0.3013636497,-2.1525526283,0.040755
 4399\C,0.3848398941,-0.9445548425,0.020044503\C,-0.2836546993,0.274962
 3095,0.0401360078\C,-1.6763126675,0.2671728764,0.0800327057\C,-2.38063
 45519,-0.9328035359,0.0989801335\C,-2.4473860062,-3.4451856822,0.09641
 67971\C,-2.0456836639,-4.5247129845,-0.7027842013\C,-2.7407491264,-5.7
 300861796,-0.6926000864\C,-3.8552297616,-5.8644144812,0.1288668642\C,-
 4.2793521207,-4.812934864,0.9348182455\C,-3.5747658141,-3.6133105831,0
 .9127912677\H,0.2526775199,-3.0822987569,0.0516617853\H,0.2718031721,1
 .2035786981,0.0239287724\H,-2.213745508,1.208546044,0.0864030655\H,-3.
 4640101089,-0.9190162326,0.102803883\H,-1.1922488509,-4.4170657612,-1.
 3621807383\H,-2.4267354746,-6.5530413723,-1.321867051\H,-5.1422444255,
 -4.9341547401,1.5771515163\H,-3.8943132581,-2.8048429805,1.5600217592\
 Cl,2.1444975421,-0.9614020816,-0.0194623412\Cl,-4.7394745762,-7.383603
 3211,0.149145759\\Version=EM64L-G16RevB.01\State=1-A\HF=-1382.6682083\
 RMSD=4.384e-09\RMSF=2.522e-05\Dipole=-0.3758703,0.5808353,0.0072211\Qu
 adrupole=-2.6370276,2.4334377,0.2035898,-6.3624735,-2.7056189,1.761564
 7\PG=C01 [X(C12H8Cl2)]\\@


            THE IRISH PIG
 'TWAS AN EVENING IN NOVEMBER,
 AS I VERY WELL REMEMBER
 I WAS STROLLING DOWN THE STREET IN DRUNKEN PRIDE,
 BUT MY KNEES WERE ALL A'FLUTTER
 SO I LANDED IN THE GUTTER,
 AND A PIG CAME UP AND LAY DOWN BY MY SIDE.

 YES, I LAY THERE IN THE GUTTER
 THINKING THOUGHTS I COULD NOT UTTER
 WHEN A COLLEEN PASSING BY DID SOFTLY SAY,
 'YE CAN TELL A MAN THAT BOOZES
 BY THE COMPANY THAT HE CHOOSES.' -
 AT THAT, THE PIG GOT UP AND WALKED AWAY!
     -- THE ECONOMIST, AUGUST 23, 1986
 Job cpu time:       0 days  6 hours 29 minutes  8.0 seconds.
 Elapsed time:       0 days  2 hours 27 minutes  5.5 seconds.
 File lengths (MBytes):  RWF=     94 Int=      0 D2E=      0 Chk=     14 Scr=      1
 Normal termination of Gaussian 16 at Mon Mar 14 19:34:58 2022.
