 Entering Gaussian System, Link 0=g16
 Input=3-Chlorobiphenyl.gjf
 Output=3-Chlorobiphenyl.log
 Initial command:
 /usr/local/g16/l1.exe "/scratch/pkc/Gau-3242.inp" -scrdir="/scratch/pkc/"
 Entering Link 1 = /usr/local/g16/l1.exe PID=      3243.
  
 Copyright (c) 1988-2017, Gaussian, Inc.  All Rights Reserved.
  
 This is part of the Gaussian(R) 16 program.  It is based on
 the Gaussian(R) 09 system (copyright 2009, Gaussian, Inc.),
 the Gaussian(R) 03 system (copyright 2003, Gaussian, Inc.),
 the Gaussian(R) 98 system (copyright 1998, Gaussian, Inc.),
 the Gaussian(R) 94 system (copyright 1995, Gaussian, Inc.),
 the Gaussian 92(TM) system (copyright 1992, Gaussian, Inc.),
 the Gaussian 90(TM) system (copyright 1990, Gaussian, Inc.),
 the Gaussian 88(TM) system (copyright 1988, Gaussian, Inc.),
 the Gaussian 86(TM) system (copyright 1986, Carnegie Mellon
 University), and the Gaussian 82(TM) system (copyright 1983,
 Carnegie Mellon University). Gaussian is a federally registered
 trademark of Gaussian, Inc.
  
 This software contains proprietary and confidential information,
 including trade secrets, belonging to Gaussian, Inc.
  
 This software is provided under written license and may be
 used, copied, transmitted, or stored only in accord with that
 written license.
  
 The following legend is applicable only to US Government
 contracts under FAR:
  
                    RESTRICTED RIGHTS LEGEND
  
 Use, reproduction and disclosure by the US Government is
 subject to restrictions as set forth in subparagraphs (a)
 and (c) of the Commercial Computer Software - Restricted
 Rights clause in FAR 52.227-19.
  
 Gaussian, Inc.
 340 Quinnipiac St., Bldg. 40, Wallingford CT 06492
  
  
 ---------------------------------------------------------------
 Warning -- This program may not be used in any manner that
 competes with the business of Gaussian, Inc. or will provide
 assistance to any competitor of Gaussian, Inc.  The licensee
 of this program is prohibited from giving any competitor of
 Gaussian, Inc. access to this program.  By using this program,
 the user acknowledges that Gaussian, Inc. is engaged in the
 business of creating and licensing software in the field of
 computational chemistry and represents and warrants to the
 licensee that it is not a competitor of Gaussian, Inc. and that
 it will not use this program in any manner prohibited above.
 ---------------------------------------------------------------
  

 Cite this work as:
 Gaussian 16, Revision B.01,
 M. J. Frisch, G. W. Trucks, H. B. Schlegel, G. E. Scuseria, 
 M. A. Robb, J. R. Cheeseman, G. Scalmani, V. Barone, 
 G. A. Petersson, H. Nakatsuji, X. Li, M. Caricato, A. V. Marenich, 
 J. Bloino, B. G. Janesko, R. Gomperts, B. Mennucci, H. P. Hratchian, 
 J. V. Ortiz, A. F. Izmaylov, J. L. Sonnenberg, D. Williams-Young, 
 F. Ding, F. Lipparini, F. Egidi, J. Goings, B. Peng, A. Petrone, 
 T. Henderson, D. Ranasinghe, V. G. Zakrzewski, J. Gao, N. Rega, 
 G. Zheng, W. Liang, M. Hada, M. Ehara, K. Toyota, R. Fukuda, 
 J. Hasegawa, M. Ishida, T. Nakajima, Y. Honda, O. Kitao, H. Nakai, 
 T. Vreven, K. Throssell, J. A. Montgomery, Jr., J. E. Peralta, 
 F. Ogliaro, M. J. Bearpark, J. J. Heyd, E. N. Brothers, K. N. Kudin, 
 V. N. Staroverov, T. A. Keith, R. Kobayashi, J. Normand, 
 K. Raghavachari, A. P. Rendell, J. C. Burant, S. S. Iyengar, 
 J. Tomasi, M. Cossi, J. M. Millam, M. Klene, C. Adamo, R. Cammi, 
 J. W. Ochterski, R. L. Martin, K. Morokuma, O. Farkas, 
 J. B. Foresman, and D. J. Fox, Gaussian, Inc., Wallingford CT, 2016.
 
 ******************************************
 Gaussian 16:  EM64L-G16RevB.01 20-Dec-2017
                14-Mar-2022 
 ******************************************
 %mem=10GB
 %nprocshared=4
 Will use up to    4 processors via shared memory.
 --------------------------------
 # opt b3lyp/6-311+g(d,p) scf=xqc
 --------------------------------
 1/18=20,19=15,26=3,38=1/1,3;
 2/9=110,12=2,17=6,18=5,40=1/2;
 3/5=4,6=6,7=111,11=2,25=1,30=1,71=1,74=-5/1,2,3;
 4//1;
 5/5=2,8=3,13=1,38=5/2,8;
 6/7=2,8=2,9=2,10=2,28=1/1;
 7//1,2,3,16;
 1/18=20,19=15,26=3/3(2);
 2/9=110/2;
 99//99;
 2/9=110/2;
 3/5=4,6=6,7=111,11=2,25=1,30=1,71=1,74=-5/1,2,3;
 4/5=5,16=3,69=1/1;
 5/5=2,8=3,13=1,38=5/2,8;
 7//1,2,3,16;
 1/18=20,19=15,26=3/3(-5);
 2/9=110/2;
 6/7=2,8=2,9=2,10=2,19=2,28=1/1;
 99/9=1/99;
 -------------------
 Title Card Required
 -------------------
 Symbolic Z-matrix:
 Charge =  0 Multiplicity = 1
 C                    -0.32627  -1.57226  -0.00285 
 C                     1.00611  -1.54238  -0.4362 
 C                     1.714    -0.33293  -0.44227 
 C                     1.08951   0.84664  -0.015 
 C                    -0.24287   0.81675   0.41835 
 C                    -0.95076  -0.3927    0.42442 
 C                    -1.10418  -2.90133   0.00382 
 C                    -0.47969  -4.08089  -0.42345 
 C                    -1.18758  -5.29035  -0.41738 
 C                    -2.51996  -5.32023   0.01597 
 C                    -3.14445  -4.14067   0.44325 
 C                    -2.43656  -2.93122   0.43717 
 H                     1.48292  -2.443    -0.76243 
 H                     1.63001   1.77008  -0.01963 
 H                    -0.71968   1.71738   0.74458 
 H                    -1.96806  -0.41552   0.75529 
 H                     0.53761  -4.05808  -0.75432 
 H                    -0.71077  -6.19097  -0.74361 
 H                    -3.06045  -6.24368   0.02061 
 H                    -4.16175  -4.16349   0.77412 
 H                    -2.91337  -2.03059   0.76341 
 Cl                    3.38732  -0.29539  -0.9865 
 

 GradGradGradGradGradGradGradGradGradGradGradGradGradGradGradGradGradGrad
 Berny optimization.
 Initialization pass.
                           ----------------------------
                           !    Initial Parameters    !
                           ! (Angstroms and Degrees)  !
 --------------------------                            --------------------------
 ! Name  Definition              Value          Derivative Info.                !
 --------------------------------------------------------------------------------
 ! R1    R(1,2)                  1.4014         estimate D2E/DX2                !
 ! R2    R(1,6)                  1.4014         estimate D2E/DX2                !
 ! R3    R(1,7)                  1.54           estimate D2E/DX2                !
 ! R4    R(2,3)                  1.4014         estimate D2E/DX2                !
 ! R5    R(2,13)                 1.07           estimate D2E/DX2                !
 ! R6    R(3,4)                  1.4014         estimate D2E/DX2                !
 ! R7    R(3,22)                 1.76           estimate D2E/DX2                !
 ! R8    R(4,5)                  1.4014         estimate D2E/DX2                !
 ! R9    R(4,14)                 1.07           estimate D2E/DX2                !
 ! R10   R(5,6)                  1.4014         estimate D2E/DX2                !
 ! R11   R(5,15)                 1.07           estimate D2E/DX2                !
 ! R12   R(6,16)                 1.07           estimate D2E/DX2                !
 ! R13   R(7,8)                  1.4014         estimate D2E/DX2                !
 ! R14   R(7,12)                 1.4014         estimate D2E/DX2                !
 ! R15   R(8,9)                  1.4014         estimate D2E/DX2                !
 ! R16   R(8,17)                 1.07           estimate D2E/DX2                !
 ! R17   R(9,10)                 1.4014         estimate D2E/DX2                !
 ! R18   R(9,18)                 1.07           estimate D2E/DX2                !
 ! R19   R(10,11)                1.4014         estimate D2E/DX2                !
 ! R20   R(10,19)                1.07           estimate D2E/DX2                !
 ! R21   R(11,12)                1.4014         estimate D2E/DX2                !
 ! R22   R(11,20)                1.07           estimate D2E/DX2                !
 ! R23   R(12,21)                1.07           estimate D2E/DX2                !
 ! A1    A(2,1,6)              120.0            estimate D2E/DX2                !
 ! A2    A(2,1,7)              120.0            estimate D2E/DX2                !
 ! A3    A(6,1,7)              120.0            estimate D2E/DX2                !
 ! A4    A(1,2,3)              120.0            estimate D2E/DX2                !
 ! A5    A(1,2,13)             120.0            estimate D2E/DX2                !
 ! A6    A(3,2,13)             120.0            estimate D2E/DX2                !
 ! A7    A(2,3,4)              120.0            estimate D2E/DX2                !
 ! A8    A(2,3,22)             120.0            estimate D2E/DX2                !
 ! A9    A(4,3,22)             120.0            estimate D2E/DX2                !
 ! A10   A(3,4,5)              120.0            estimate D2E/DX2                !
 ! A11   A(3,4,14)             120.0            estimate D2E/DX2                !
 ! A12   A(5,4,14)             120.0            estimate D2E/DX2                !
 ! A13   A(4,5,6)              120.0            estimate D2E/DX2                !
 ! A14   A(4,5,15)             120.0            estimate D2E/DX2                !
 ! A15   A(6,5,15)             120.0            estimate D2E/DX2                !
 ! A16   A(1,6,5)              120.0            estimate D2E/DX2                !
 ! A17   A(1,6,16)             120.0            estimate D2E/DX2                !
 ! A18   A(5,6,16)             120.0            estimate D2E/DX2                !
 ! A19   A(1,7,8)              120.0            estimate D2E/DX2                !
 ! A20   A(1,7,12)             120.0            estimate D2E/DX2                !
 ! A21   A(8,7,12)             120.0            estimate D2E/DX2                !
 ! A22   A(7,8,9)              120.0            estimate D2E/DX2                !
 ! A23   A(7,8,17)             120.0            estimate D2E/DX2                !
 ! A24   A(9,8,17)             120.0            estimate D2E/DX2                !
 ! A25   A(8,9,10)             120.0            estimate D2E/DX2                !
 ! A26   A(8,9,18)             120.0            estimate D2E/DX2                !
 ! A27   A(10,9,18)            120.0            estimate D2E/DX2                !
 ! A28   A(9,10,11)            120.0            estimate D2E/DX2                !
 ! A29   A(9,10,19)            120.0            estimate D2E/DX2                !
 ! A30   A(11,10,19)           120.0            estimate D2E/DX2                !
 ! A31   A(10,11,12)           120.0            estimate D2E/DX2                !
 ! A32   A(10,11,20)           120.0            estimate D2E/DX2                !
 ! A33   A(12,11,20)           120.0            estimate D2E/DX2                !
 ! A34   A(7,12,11)            120.0            estimate D2E/DX2                !
 ! A35   A(7,12,21)            120.0            estimate D2E/DX2                !
 ! A36   A(11,12,21)           120.0            estimate D2E/DX2                !
 ! D1    D(6,1,2,3)              0.0001         estimate D2E/DX2                !
 ! D2    D(6,1,2,13)           180.0            estimate D2E/DX2                !
 ! D3    D(7,1,2,3)           -180.0            estimate D2E/DX2                !
 ! D4    D(7,1,2,13)            -0.0001         estimate D2E/DX2                !
 ! D5    D(2,1,6,5)             -0.0001         estimate D2E/DX2                !
 ! D6    D(2,1,6,16)           180.0            estimate D2E/DX2                !
 ! D7    D(7,1,6,5)            180.0            estimate D2E/DX2                !
 ! D8    D(7,1,6,16)             0.0            estimate D2E/DX2                !
 ! D9    D(2,1,7,8)             -0.0001         estimate D2E/DX2                !
 ! D10   D(2,1,7,12)           179.9998         estimate D2E/DX2                !
 ! D11   D(6,1,7,8)            179.9999         estimate D2E/DX2                !
 ! D12   D(6,1,7,12)            -0.0002         estimate D2E/DX2                !
 ! D13   D(1,2,3,4)              0.0            estimate D2E/DX2                !
 ! D14   D(1,2,3,22)           180.0            estimate D2E/DX2                !
 ! D15   D(13,2,3,4)          -179.9999         estimate D2E/DX2                !
 ! D16   D(13,2,3,22)            0.0001         estimate D2E/DX2                !
 ! D17   D(2,3,4,5)             -0.0001         estimate D2E/DX2                !
 ! D18   D(2,3,4,14)           180.0            estimate D2E/DX2                !
 ! D19   D(22,3,4,5)           179.9999         estimate D2E/DX2                !
 ! D20   D(22,3,4,14)            0.0            estimate D2E/DX2                !
 ! D21   D(3,4,5,6)              0.0001         estimate D2E/DX2                !
 ! D22   D(3,4,5,15)          -179.9999         estimate D2E/DX2                !
 ! D23   D(14,4,5,6)          -180.0            estimate D2E/DX2                !
 ! D24   D(14,4,5,15)            0.0            estimate D2E/DX2                !
 ! D25   D(4,5,6,1)              0.0            estimate D2E/DX2                !
 ! D26   D(4,5,6,16)           179.9999         estimate D2E/DX2                !
 ! D27   D(15,5,6,1)           180.0            estimate D2E/DX2                !
 ! D28   D(15,5,6,16)           -0.0001         estimate D2E/DX2                !
 ! D29   D(1,7,8,9)            179.9999         estimate D2E/DX2                !
 ! D30   D(1,7,8,17)             0.0001         estimate D2E/DX2                !
 ! D31   D(12,7,8,9)             0.0001         estimate D2E/DX2                !
 ! D32   D(12,7,8,17)         -179.9998         estimate D2E/DX2                !
 ! D33   D(1,7,12,11)         -179.9999         estimate D2E/DX2                !
 ! D34   D(1,7,12,21)            0.0            estimate D2E/DX2                !
 ! D35   D(8,7,12,11)           -0.0001         estimate D2E/DX2                !
 ! D36   D(8,7,12,21)          179.9999         estimate D2E/DX2                !
 ! D37   D(7,8,9,10)             0.0            estimate D2E/DX2                !
 ! D38   D(7,8,9,18)           180.0            estimate D2E/DX2                !
 ! D39   D(17,8,9,10)          179.9998         estimate D2E/DX2                !
 ! D40   D(17,8,9,18)           -0.0002         estimate D2E/DX2                !
 ! D41   D(8,9,10,11)            0.0            estimate D2E/DX2                !
 ! D42   D(8,9,10,19)         -179.9999         estimate D2E/DX2                !
 ! D43   D(18,9,10,11)         180.0            estimate D2E/DX2                !
 ! D44   D(18,9,10,19)           0.0001         estimate D2E/DX2                !
 ! D45   D(9,10,11,12)           0.0            estimate D2E/DX2                !
 ! D46   D(9,10,11,20)        -179.9998         estimate D2E/DX2                !
 ! D47   D(19,10,11,12)        179.9999         estimate D2E/DX2                !
 ! D48   D(19,10,11,20)          0.0001         estimate D2E/DX2                !
 ! D49   D(10,11,12,7)           0.0            estimate D2E/DX2                !
 ! D50   D(10,11,12,21)       -179.9999         estimate D2E/DX2                !
 ! D51   D(20,11,12,7)         179.9999         estimate D2E/DX2                !
 ! D52   D(20,11,12,21)         -0.0001         estimate D2E/DX2                !
 --------------------------------------------------------------------------------
 Trust Radius=3.00D-01 FncErr=1.00D-07 GrdErr=1.00D-06 EigMax=2.50D+02 EigMin=1.00D-04
 Number of steps in this run=    121 maximum allowed number of steps=    132.
 GradGradGradGradGradGradGradGradGradGradGradGradGradGradGradGradGradGrad

                          Input orientation:                          
 ---------------------------------------------------------------------
 Center     Atomic      Atomic             Coordinates (Angstroms)
 Number     Number       Type             X           Y           Z
 ---------------------------------------------------------------------
      1          6           0       -0.326272   -1.572262   -0.002851
      2          6           0        1.006109   -1.542377   -0.436198
      3          6           0        1.714002   -0.332926   -0.442270
      4          6           0        1.089515    0.846639   -0.014995
      5          6           0       -0.242867    0.816754    0.418349
      6          6           0       -0.950761   -0.392697    0.424422
      7          6           0       -1.104177   -2.901330    0.003823
      8          6           0       -0.479690   -4.080895   -0.423452
      9          6           0       -1.187583   -5.290346   -0.417378
     10          6           0       -2.519963   -5.320233    0.015972
     11          6           0       -3.144450   -4.140668    0.443247
     12          6           0       -2.436557   -2.931216    0.437173
     13          1           0        1.482919   -2.443001   -0.762430
     14          1           0        1.630007    1.770082   -0.019631
     15          1           0       -0.719678    1.717378    0.744581
     16          1           0       -1.968063   -0.415515    0.755291
     17          1           0        0.537613   -4.058076   -0.754322
     18          1           0       -0.710773   -6.190970   -0.743612
     19          1           0       -3.060454   -6.243676    0.020612
     20          1           0       -4.161751   -4.163487    0.774122
     21          1           0       -2.913367   -2.030592    0.763409
     22         17           0        3.387323   -0.295393   -0.986503
 ---------------------------------------------------------------------
                    Distance matrix (angstroms):
                    1          2          3          4          5
     1  C    0.000000
     2  C    1.401400   0.000000
     3  C    2.427296   1.401400   0.000000
     4  C    2.802800   2.427296   1.401400   0.000000
     5  C    2.427296   2.802800   2.427296   1.401400   0.000000
     6  C    1.401400   2.427296   2.802800   2.427296   1.401400
     7  C    1.540000   2.548270   3.838989   4.342800   3.838989
     8  C    2.548270   2.941400   4.342800   5.187469   4.975106
     9  C    3.838989   4.342800   5.744200   6.558176   6.235992
    10  C    4.342800   5.187469   6.558176   7.145600   6.558176
    11  C    3.838989   4.975106   6.235992   6.558176   5.744200
    12  C    2.548270   3.813607   4.975106   5.187469   4.342800
    13  H    2.146700   1.070000   2.146700   3.396345   3.872800
    14  H    3.872800   3.396345   2.146700   1.070000   2.146700
    15  H    3.396345   3.872800   3.396345   2.146700   1.070000
    16  H    2.146700   3.396345   3.872800   3.396345   2.146700
    17  H    2.736837   2.578650   3.918930   4.990735   5.074276
    18  H    4.693509   4.965039   6.347206   7.300676   7.118798
    19  H    5.412800   6.232802   7.612271   8.215600   7.612271
    20  H    4.693509   5.919617   7.118798   7.300676   6.347206
    21  H    2.736837   4.127917   5.074276   4.990735   3.918930
    22  Cl   4.048303   2.743718   1.760000   2.743718   4.048303
                    6          7          8          9         10
     6  C    0.000000
     7  C    2.548270   0.000000
     8  C    3.813607   1.401400   0.000000
     9  C    4.975106   2.427296   1.401400   0.000000
    10  C    5.187469   2.802800   2.427296   1.401400   0.000000
    11  C    4.342800   2.427296   2.802800   2.427296   1.401400
    12  C    2.941400   1.401400   2.427296   2.802800   2.427296
    13  H    3.396345   2.736837   2.578650   3.918930   4.990735
    14  H    3.396345   5.412800   6.232802   7.612271   8.215600
    15  H    2.146700   4.693509   5.919617   7.118798   7.300676
    16  H    1.070000   2.736837   4.127917   5.074276   4.990735
    17  H    4.127917   2.146700   1.070000   2.146700   3.396345
    18  H    5.919617   3.396345   2.146700   1.070000   2.146700
    19  H    6.232802   3.872800   3.396345   2.146700   1.070000
    20  H    4.965039   3.396345   3.872800   3.396345   2.146700
    21  H    2.578650   2.146700   3.396345   3.872800   3.396345
    22  Cl   4.562800   5.286324   5.440665   6.797295   7.819846
                   11         12         13         14         15
    11  C    0.000000
    12  C    1.401400   0.000000
    13  H    5.074276   4.127917   0.000000
    14  H    7.612271   6.232802   4.280590   0.000000
    15  H    6.347206   4.965039   4.942800   2.471400   0.000000
    16  H    3.918930   2.578650   4.280590   4.280590   2.471400
    17  H    3.872800   3.396345   1.871400   5.974992   6.097816
    18  H    3.396345   3.872800   4.342800   8.329571   8.047159
    19  H    2.146700   3.396345   5.974992   9.285600   8.329571
    20  H    1.070000   2.146700   6.097816   8.329571   6.814200
    21  H    2.146700   1.070000   4.671787   5.974992   4.342800
    22  Cl   7.713260   6.549198   2.879094   2.879094   4.890332
                   16         17         18         19         20
    16  H    0.000000
    17  H    4.671787   0.000000
    18  H    6.097816   2.471400   0.000000
    19  H    5.974992   4.280590   2.471400   0.000000
    20  H    4.342800   4.942800   4.280590   2.471400   0.000000
    21  H    1.871400   4.280590   4.942800   4.280590   2.471400
    22  Cl   5.632800   4.725732   7.184095   8.830073   8.663168
                   21         22
    21  H    0.000000
    22  Cl   6.765486   0.000000
 Stoichiometry    C12H9Cl
 Framework group  C1[X(C12H9Cl)]
 Deg. of freedom    60
 Full point group                 C1      NOp   1
 Largest Abelian subgroup         C1      NOp   1
 Largest concise Abelian subgroup C1      NOp   1
                         Standard orientation:                         
 ---------------------------------------------------------------------
 Center     Atomic      Atomic             Coordinates (Angstroms)
 Number     Number       Type             X           Y           Z
 ---------------------------------------------------------------------
      1          6           0        0.031110    0.477503   -0.000001
      2          6           0        1.022607   -0.512879   -0.000001
      3          6           0        2.376051   -0.149410    0.000000
      4          6           0        2.737999    1.204442    0.000001
      5          6           0        1.746503    2.194825   -0.000001
      6          6           0        0.393058    1.831355   -0.000002
      7          6           0       -1.456191    0.078085   -0.000002
      8          6           0       -1.818139   -1.275767   -0.000003
      9          6           0       -3.171584   -1.639237   -0.000002
     10          6           0       -4.163080   -0.648854    0.000001
     11          6           0       -3.801132    0.704998    0.000003
     12          6           0       -2.447687    1.068468    0.000002
     13          1           0        0.746251   -1.546576    0.000000
     14          1           0        3.771384    1.481960    0.000002
     15          1           0        2.022858    3.228521   -0.000003
     16          1           0       -0.363971    2.587534   -0.000003
     17          1           0       -1.061110   -2.031946   -0.000002
     18          1           0       -3.447939   -2.672933   -0.000003
     19          1           0       -5.196465   -0.926372    0.000004
     20          1           0       -4.558161    1.461177    0.000008
     21          1           0       -2.171332    2.102164    0.000004
     22         17           0        3.621258   -1.393218    0.000002
 ---------------------------------------------------------------------
 Rotational constants (GHZ):           1.6499893           0.3633500           0.2977758
 Standard basis: 6-311+G(d,p) (5D, 7F)
 There are   361 symmetry adapted cartesian basis functions of A   symmetry.
 There are   348 symmetry adapted basis functions of A   symmetry.
   348 basis functions,   557 primitive gaussians,   361 cartesian basis functions
    49 alpha electrons       49 beta electrons
       nuclear repulsion energy       759.9133403749 Hartrees.
 NAtoms=   22 NActive=   22 NUniq=   22 SFac= 1.00D+00 NAtFMM=   60 NAOKFM=F Big=F
 Integral buffers will be    131072 words long.
 Raffenetti 2 integral format.
 Two-electron integral symmetry is turned on.
 One-electron integrals computed using PRISM.
 NBasis=   348 RedAO= T EigKep=  2.25D-06  NBF=   348
 NBsUse=   344 1.00D-06 EigRej=  9.73D-07 NBFU=   344
 ExpMin= 4.38D-02 ExpMax= 1.06D+05 ExpMxC= 3.62D+03 IAcc=3 IRadAn=         5 AccDes= 0.00D+00
 Harris functional with IExCor=  402 and IRadAn=       5 diagonalized for initial guess.
 HarFok:  IExCor=  402 AccDes= 0.00D+00 IRadAn=         5 IDoV= 1 UseB2=F ITyADJ=14
 ICtDFT=  3500011 ScaDFX=  1.000000  1.000000  1.000000  1.000000
 FoFCou: FMM=F IPFlag=           0 FMFlag=      100000 FMFlg1=           0
         NFxFlg=           0 DoJE=T BraDBF=F KetDBF=T FulRan=T
         wScrn=  0.000000 ICntrl=       500 IOpCl=  0 I1Cent=   200000004 NGrid=           0
         NMat0=    1 NMatS0=      1 NMatT0=    0 NMatD0=    1 NMtDS0=    0 NMtDT0=    0
 Petite list used in FoFCou.
 Requested convergence on RMS density matrix=1.00D-08 within  32 cycles.
 Requested convergence on MAX density matrix=1.00D-06.
 Requested convergence on             energy=1.00D-06.
 No special actions if energy rises.
 SCF Done:  E(RB3LYP) =  -923.038065719     A.U. after   15 cycles
            NFock= 15  Conv=0.51D-08     -V/T= 2.0036
 QCSCF skips out because SCF is already converged.

 **********************************************************************

            Population analysis using the SCF Density.

 **********************************************************************

 Orbital symmetries:
       Occupied  (A) (A) (A) (A) (A) (A) (A) (A) (A) (A) (A) (A)
                 (A) (A) (A) (A) (A) (A) (A) (A) (A) (A) (A) (A)
                 (A) (A) (A) (A) (A) (A) (A) (A) (A) (A) (A) (A)
                 (A) (A) (A) (A) (A) (A) (A) (A) (A) (A) (A) (A)
                 (A)
       Virtual   (A) (A) (A) (A) (A) (A) (A) (A) (A) (A) (A) (A)
                 (A) (A) (A) (A) (A) (A) (A) (A) (A) (A) (A) (A)
                 (A) (A) (A) (A) (A) (A) (A) (A) (A) (A) (A) (A)
                 (A) (A) (A) (A) (A) (A) (A) (A) (A) (A) (A) (A)
                 (A) (A) (A) (A) (A) (A) (A) (A) (A) (A) (A) (A)
                 (A) (A) (A) (A) (A) (A) (A) (A) (A) (A) (A) (A)
                 (A) (A) (A) (A) (A) (A) (A) (A) (A) (A) (A) (A)
                 (A) (A) (A) (A) (A) (A) (A) (A) (A) (A) (A) (A)
                 (A) (A) (A) (A) (A) (A) (A) (A) (A) (A) (A) (A)
                 (A) (A) (A) (A) (A) (A) (A) (A) (A) (A) (A) (A)
                 (A) (A) (A) (A) (A) (A) (A) (A) (A) (A) (A) (A)
                 (A) (A) (A) (A) (A) (A) (A) (A) (A) (A) (A) (A)
                 (A) (A) (A) (A) (A) (A) (A) (A) (A) (A) (A) (A)
                 (A) (A) (A) (A) (A) (A) (A) (A) (A) (A) (A) (A)
                 (A) (A) (A) (A) (A) (A) (A) (A) (A) (A) (A) (A)
                 (A) (A) (A) (A) (A) (A) (A) (A) (A) (A) (A) (A)
                 (A) (A) (A) (A) (A) (A) (A) (A) (A) (A) (A) (A)
                 (A) (A) (A) (A) (A) (A) (A) (A) (A) (A) (A) (A)
                 (A) (A) (A) (A) (A) (A) (A) (A) (A) (A) (A) (A)
                 (A) (A) (A) (A) (A) (A) (A) (A) (A) (A) (A) (A)
                 (A) (A) (A) (A) (A) (A) (A) (A) (A) (A) (A) (A)
                 (A) (A) (A) (A) (A) (A) (A) (A) (A) (A) (A) (A)
                 (A) (A) (A) (A) (A) (A) (A) (A) (A) (A) (A) (A)
                 (A) (A) (A) (A) (A) (A) (A) (A) (A) (A) (A) (A)
                 (A) (A) (A) (A) (A) (A) (A)
 The electronic state is 1-A.
 Alpha  occ. eigenvalues -- -101.55869 -10.24821 -10.20722 -10.20179 -10.19429
 Alpha  occ. eigenvalues --  -10.19374 -10.19316 -10.18850 -10.18672 -10.18653
 Alpha  occ. eigenvalues --  -10.18588 -10.18564 -10.18436  -9.47312  -7.23773
 Alpha  occ. eigenvalues --   -7.22795  -7.22763  -0.89942  -0.87120  -0.84388
 Alpha  occ. eigenvalues --   -0.78692  -0.76290  -0.74941  -0.73431  -0.64164
 Alpha  occ. eigenvalues --   -0.63513  -0.60483  -0.58949  -0.54969  -0.51276
 Alpha  occ. eigenvalues --   -0.49112  -0.48755  -0.45738  -0.45134  -0.45046
 Alpha  occ. eigenvalues --   -0.43679  -0.42978  -0.40903  -0.38392  -0.38252
 Alpha  occ. eigenvalues --   -0.38166  -0.35578  -0.35276  -0.34296  -0.32074
 Alpha  occ. eigenvalues --   -0.29480  -0.26821  -0.25938  -0.23892
 Alpha virt. eigenvalues --   -0.05597  -0.04140  -0.01663  -0.00300   0.00635
 Alpha virt. eigenvalues --    0.00719   0.01244   0.01388   0.02671   0.03319
 Alpha virt. eigenvalues --    0.04522   0.04674   0.05202   0.05278   0.06460
 Alpha virt. eigenvalues --    0.06964   0.07632   0.07863   0.08519   0.09004
 Alpha virt. eigenvalues --    0.09339   0.10983   0.11061   0.11448   0.12026
 Alpha virt. eigenvalues --    0.12257   0.12596   0.13487   0.13719   0.14139
 Alpha virt. eigenvalues --    0.14717   0.14821   0.15649   0.15838   0.16403
 Alpha virt. eigenvalues --    0.16869   0.17281   0.17548   0.18301   0.18451
 Alpha virt. eigenvalues --    0.18869   0.19089   0.19610   0.19708   0.20435
 Alpha virt. eigenvalues --    0.20524   0.20908   0.21072   0.21741   0.22234
 Alpha virt. eigenvalues --    0.22785   0.23379   0.23493   0.24547   0.25202
 Alpha virt. eigenvalues --    0.25718   0.26203   0.26791   0.27450   0.27716
 Alpha virt. eigenvalues --    0.28684   0.29812   0.30415   0.30857   0.31348
 Alpha virt. eigenvalues --    0.32444   0.32757   0.34150   0.35028   0.35239
 Alpha virt. eigenvalues --    0.36226   0.38607   0.39413   0.43389   0.45390
 Alpha virt. eigenvalues --    0.46073   0.46164   0.46773   0.49752   0.51535
 Alpha virt. eigenvalues --    0.52180   0.52196   0.52574   0.53826   0.54316
 Alpha virt. eigenvalues --    0.54746   0.54981   0.55170   0.55302   0.56708
 Alpha virt. eigenvalues --    0.56853   0.58513   0.59193   0.60448   0.60535
 Alpha virt. eigenvalues --    0.61767   0.61879   0.63804   0.64445   0.65801
 Alpha virt. eigenvalues --    0.66525   0.66685   0.68245   0.68271   0.68540
 Alpha virt. eigenvalues --    0.69895   0.70814   0.71075   0.73246   0.74749
 Alpha virt. eigenvalues --    0.75307   0.77505   0.78880   0.81534   0.82145
 Alpha virt. eigenvalues --    0.82206   0.82705   0.83555   0.83670   0.84381
 Alpha virt. eigenvalues --    0.85175   0.86296   0.88259   0.88341   0.88867
 Alpha virt. eigenvalues --    0.89961   0.90402   0.90904   0.92981   0.94500
 Alpha virt. eigenvalues --    0.94563   0.95834   0.95960   0.97855   1.00583
 Alpha virt. eigenvalues --    1.01101   1.01243   1.02096   1.05154   1.05646
 Alpha virt. eigenvalues --    1.06807   1.07604   1.08608   1.09404   1.10444
 Alpha virt. eigenvalues --    1.12353   1.13200   1.13882   1.18522   1.22068
 Alpha virt. eigenvalues --    1.25885   1.28085   1.29218   1.33276   1.33691
 Alpha virt. eigenvalues --    1.45495   1.45897   1.46336   1.48075   1.48985
 Alpha virt. eigenvalues --    1.50943   1.52199   1.55163   1.55780   1.55857
 Alpha virt. eigenvalues --    1.56040   1.56431   1.57918   1.61660   1.61720
 Alpha virt. eigenvalues --    1.62653   1.63718   1.66525   1.67496   1.70424
 Alpha virt. eigenvalues --    1.71069   1.74154   1.74287   1.75569   1.77725
 Alpha virt. eigenvalues --    1.79177   1.82228   1.83727   1.84530   1.85281
 Alpha virt. eigenvalues --    1.89663   1.90543   1.91228   1.91435   1.94200
 Alpha virt. eigenvalues --    1.94204   1.95464   1.95642   1.96391   1.98433
 Alpha virt. eigenvalues --    1.98852   1.99433   1.99929   2.02772   2.03689
 Alpha virt. eigenvalues --    2.06797   2.08013   2.09735   2.12860   2.21636
 Alpha virt. eigenvalues --    2.23353   2.27582   2.27945   2.28052   2.28965
 Alpha virt. eigenvalues --    2.35475   2.35554   2.37527   2.38407   2.40832
 Alpha virt. eigenvalues --    2.41267   2.43422   2.45727   2.46925   2.51290
 Alpha virt. eigenvalues --    2.54728   2.59027   2.62658   2.63095   2.65504
 Alpha virt. eigenvalues --    2.67308   2.68232   2.69185   2.69834   2.69980
 Alpha virt. eigenvalues --    2.71748   2.73046   2.74488   2.74876   2.74954
 Alpha virt. eigenvalues --    2.75308   2.76244   2.79754   2.80166   2.82310
 Alpha virt. eigenvalues --    2.83175   2.83693   2.85321   2.86509   2.86849
 Alpha virt. eigenvalues --    2.93137   2.93517   2.94664   2.97748   3.06585
 Alpha virt. eigenvalues --    3.07651   3.09433   3.14581   3.16430   3.19910
 Alpha virt. eigenvalues --    3.22574   3.33376   3.34804   3.36095   3.38764
 Alpha virt. eigenvalues --    3.48996   3.52415   3.53006   3.56943   3.60410
 Alpha virt. eigenvalues --    3.65395   3.72416   3.80058   4.00624   4.03800
 Alpha virt. eigenvalues --    4.04993   4.12337   4.13990   4.18330   4.23164
 Alpha virt. eigenvalues --    4.49622   4.81007   4.85117   9.78000  23.51937
 Alpha virt. eigenvalues --   23.67421  23.88280  23.91849  23.94653  23.96237
 Alpha virt. eigenvalues --   24.03979  24.05372  24.06236  24.07971  24.14837
 Alpha virt. eigenvalues --   24.17146  25.82526  26.13898  26.60119 215.77114
          Condensed to atoms (all electrons):
               1          2          3          4          5          6
     1  C    8.414855   0.573080  -1.071133  -0.504128  -1.063283  -0.475116
     2  C    0.573080   9.496883   1.385108  -1.634415  -0.565212  -1.884071
     3  C   -1.071133   1.385108  12.388345  -3.896019  -1.094949  -0.268867
     4  C   -0.504128  -1.634415  -3.896019  11.070561   1.562599  -0.525188
     5  C   -1.063283  -0.565212  -1.094949   1.562599   7.466473   0.370321
     6  C   -0.475116  -1.884071  -0.268867  -0.525188   0.370321   9.301596
     7  C    1.814314  -0.839766  -0.775132  -0.159518  -0.448965  -0.316937
     8  C   -0.672006   2.683631   0.064871   0.225178  -0.312041  -2.560038
     9  C   -0.089751  -0.556667   0.382410   0.090216   0.068672   0.111311
    10  C   -0.369710  -0.016530  -0.075318   0.030647  -0.035711  -0.056167
    11  C   -0.216847  -0.037094  -0.082602  -0.099831   0.066540  -0.303579
    12  C   -0.771950  -2.486234  -0.857860   0.225578  -0.161138   2.641358
    13  H    0.022648   0.294423  -0.124923   0.057307  -0.005053  -0.001425
    14  H    0.045571  -0.000643   0.024529   0.345006  -0.046198  -0.021211
    15  H    0.026681  -0.018323  -0.019463   0.004866   0.404121  -0.054843
    16  H    0.028593   0.007605  -0.008842  -0.004771  -0.091756   0.336213
    17  H    0.036432   0.027834  -0.016229  -0.008669   0.001273   0.017546
    18  H   -0.002409   0.010218   0.001500   0.000297  -0.000285  -0.001788
    19  H    0.002329   0.000991   0.000195  -0.000027   0.000292   0.001402
    20  H   -0.003494  -0.001221  -0.000463   0.000188   0.000616   0.008611
    21  H    0.034178   0.017787   0.004357  -0.001401   0.001661   0.017686
    22  Cl  -0.326753   0.265042  -0.546829  -0.191303   0.203609   0.043810
               7          8          9         10         11         12
     1  C    1.814314  -0.672006  -0.089751  -0.369710  -0.216847  -0.771950
     2  C   -0.839766   2.683631  -0.556667  -0.016530  -0.037094  -2.486234
     3  C   -0.775132   0.064871   0.382410  -0.075318  -0.082602  -0.857860
     4  C   -0.159518   0.225178   0.090216   0.030647  -0.099831   0.225578
     5  C   -0.448965  -0.312041   0.068672  -0.035711   0.066540  -0.161138
     6  C   -0.316937  -2.560038   0.111311  -0.056167  -0.303579   2.641358
     7  C    6.898007  -0.745350   0.046709  -0.535981  -0.052864   0.114969
     8  C   -0.745350  11.925037  -2.468645   0.516365   0.979908  -3.606587
     9  C    0.046709  -2.468645   8.025199   0.142411  -0.627370   0.946528
    10  C   -0.535981   0.516365   0.142411   5.626919   0.493612   0.150026
    11  C   -0.052864   0.979908  -0.627370   0.493612   7.329865  -1.361983
    12  C    0.114969  -3.606587   0.946528   0.150026  -1.361983  11.310738
    13  H    0.054316   0.001839   0.011569  -0.000173  -0.004525   0.033465
    14  H    0.003789   0.000409   0.000094  -0.000009   0.000300   0.001621
    15  H   -0.001934  -0.001520   0.000083   0.000118  -0.000004   0.009349
    16  H    0.033554   0.024317   0.001234  -0.001582   0.000949  -0.001599
    17  H    0.015515   0.398749  -0.124686  -0.009930  -0.003713  -0.011321
    18  H    0.019631  -0.047557   0.393010  -0.005282  -0.010813  -0.006874
    19  H    0.042390  -0.036906  -0.002513   0.369856  -0.002401  -0.025445
    20  H    0.017125   0.001556  -0.016255   0.007000   0.389810  -0.053961
    21  H    0.021560  -0.014022  -0.004922  -0.013942  -0.108795   0.368077
    22  Cl  -0.100705  -0.042924   0.013143  -0.006191   0.001301  -0.061539
              13         14         15         16         17         18
     1  C    0.022648   0.045571   0.026681   0.028593   0.036432  -0.002409
     2  C    0.294423  -0.000643  -0.018323   0.007605   0.027834   0.010218
     3  C   -0.124923   0.024529  -0.019463  -0.008842  -0.016229   0.001500
     4  C    0.057307   0.345006   0.004866  -0.004771  -0.008669   0.000297
     5  C   -0.005053  -0.046198   0.404121  -0.091756   0.001273  -0.000285
     6  C   -0.001425  -0.021211  -0.054843   0.336213   0.017546  -0.001788
     7  C    0.054316   0.003789  -0.001934   0.033554   0.015515   0.019631
     8  C    0.001839   0.000409  -0.001520   0.024317   0.398749  -0.047557
     9  C    0.011569   0.000094   0.000083   0.001234  -0.124686   0.393010
    10  C   -0.000173  -0.000009   0.000118  -0.001582  -0.009930  -0.005282
    11  C   -0.004525   0.000300  -0.000004   0.000949  -0.003713  -0.010813
    12  C    0.033465   0.001621   0.009349  -0.001599  -0.011321  -0.006874
    13  H    0.538625  -0.000338   0.000078  -0.000027   0.003682   0.000005
    14  H   -0.000338   0.515293  -0.007389  -0.000244   0.000001  -0.000000
    15  H    0.000078  -0.007389   0.533408  -0.007118   0.000001   0.000000
    16  H   -0.000027  -0.000244  -0.007118   0.560163  -0.000106   0.000001
    17  H    0.003682   0.000001   0.000001  -0.000106   0.560290  -0.007435
    18  H    0.000005  -0.000000   0.000000   0.000001  -0.007435   0.537779
    19  H   -0.000002  -0.000000  -0.000000  -0.000001  -0.000279  -0.007346
    20  H    0.000001  -0.000000   0.000000   0.000002   0.000092  -0.000284
    21  H   -0.000100  -0.000001   0.000002   0.002104  -0.000101   0.000092
    22  Cl  -0.021034  -0.004859  -0.000036   0.000089   0.000123  -0.000000
              19         20         21         22
     1  C    0.002329  -0.003494   0.034178  -0.326753
     2  C    0.000991  -0.001221   0.017787   0.265042
     3  C    0.000195  -0.000463   0.004357  -0.546829
     4  C   -0.000027   0.000188  -0.001401  -0.191303
     5  C    0.000292   0.000616   0.001661   0.203609
     6  C    0.001402   0.008611   0.017686   0.043810
     7  C    0.042390   0.017125   0.021560  -0.100705
     8  C   -0.036906   0.001556  -0.014022  -0.042924
     9  C   -0.002513  -0.016255  -0.004922   0.013143
    10  C    0.369856   0.007000  -0.013942  -0.006191
    11  C   -0.002401   0.389810  -0.108795   0.001301
    12  C   -0.025445  -0.053961   0.368077  -0.061539
    13  H   -0.000002   0.000001  -0.000100  -0.021034
    14  H   -0.000000  -0.000000  -0.000001  -0.004859
    15  H   -0.000000   0.000000   0.000002  -0.000036
    16  H   -0.000001   0.000002   0.002104   0.000089
    17  H   -0.000279   0.000092  -0.000101   0.000123
    18  H   -0.007346  -0.000284   0.000092  -0.000000
    19  H    0.537752  -0.007351  -0.000281   0.000001
    20  H   -0.007351   0.538876  -0.007564  -0.000000
    21  H   -0.000281  -0.007564   0.563810   0.000057
    22  Cl   0.000001  -0.000000   0.000057  17.361488
 Mulliken charges:
               1
     1  C    0.567899
     2  C   -0.722424
     3  C    0.587313
     4  C   -0.587172
     5  C   -0.321585
     6  C   -0.380625
     7  C    0.895274
     8  C   -0.314261
     9  C   -0.341780
    10  C   -0.210428
    11  C   -0.349864
    12  C   -0.395218
    13  H    0.139643
    14  H    0.144280
    15  H    0.131924
    16  H    0.121221
    17  H    0.120932
    18  H    0.127542
    19  H    0.127344
    20  H    0.126717
    21  H    0.119758
    22  Cl   0.413511
 Sum of Mulliken charges =  -0.00000
 Mulliken charges with hydrogens summed into heavy atoms:
               1
     1  C    0.567899
     2  C   -0.582781
     3  C    0.587313
     4  C   -0.442892
     5  C   -0.189662
     6  C   -0.259403
     7  C    0.895274
     8  C   -0.193329
     9  C   -0.214238
    10  C   -0.083084
    11  C   -0.223147
    12  C   -0.275461
    22  Cl   0.413511
 Electronic spatial extent (au):  <R**2>=           3408.2439
 Charge=             -0.0000 electrons
 Dipole moment (field-independent basis, Debye):
    X=             -1.5871    Y=              1.1959    Z=              0.0000  Tot=              1.9872
 Quadrupole moment (field-independent basis, Debye-Ang):
   XX=            -79.3792   YY=            -73.9189   ZZ=            -89.6449
   XY=              4.1307   XZ=             -0.0000   YZ=              0.0000
 Traceless Quadrupole moment (field-independent basis, Debye-Ang):
   XX=              1.6018   YY=              7.0621   ZZ=             -8.6639
   XY=              4.1307   XZ=             -0.0000   YZ=              0.0000
 Octapole moment (field-independent basis, Debye-Ang**2):
  XXX=            -25.7836  YYY=              2.8682  ZZZ=              0.0000  XYY=             -1.2067
  XXY=             11.8045  XXZ=              0.0002  XZZ=             11.8253  YZZ=             -4.0738
  YYZ=             -0.0000  XYZ=             -0.0000
 Hexadecapole moment (field-independent basis, Debye-Ang**3):
 XXXX=          -3462.4567 YYYY=           -846.6551 ZZZZ=           -107.7043 XXXY=             31.1270
 XXXZ=             -0.0007 YYYX=              3.0369 YYYZ=             -0.0000 ZZZX=              0.0000
 ZZZY=             -0.0000 XXYY=           -702.2282 XXZZ=           -688.0169 YYZZ=           -189.3469
 XXYZ=              0.0002 YYXZ=             -0.0001 ZZXY=            -15.2808
 N-N= 7.599133403749D+02 E-N=-3.686697053390D+03  KE= 9.197681303770D+02
 Calling FoFJK, ICntrl=      2127 FMM=F ISym2X=0 I1Cent= 0 IOpClX= 0 NMat=1 NMatS=1 NMatT=0.
 ***** Axes restored to original set *****
 -------------------------------------------------------------------
 Center     Atomic                   Forces (Hartrees/Bohr)
 Number     Number              X              Y              Z
 -------------------------------------------------------------------
      1        6          -0.014599431   -0.021678539    0.000738319
      2        6           0.000831268    0.016167878    0.002762723
      3        6          -0.015123337   -0.001919071    0.004622161
      4        6          -0.003241599   -0.007526776   -0.000345867
      5        6           0.007027170   -0.019829124   -0.006039166
      6        6           0.017628564    0.007687225   -0.004364044
      7        6           0.015628181    0.024431223   -0.000560235
      8        6          -0.018853280   -0.007059048    0.004885662
      9        6          -0.006418163    0.015272338    0.004982733
     10        6           0.007343333    0.012538076   -0.000064510
     11        6           0.016568448    0.001792752   -0.005121748
     12        6           0.002971292   -0.019588546   -0.004657914
     13        1           0.005905546   -0.003397842   -0.002583811
     14        1           0.005285193    0.007516326   -0.000329588
     15        1          -0.003342070    0.008487088    0.002695062
     16        1          -0.006167241    0.002839036    0.002564967
     17        1           0.006559458   -0.003037426   -0.002731631
     18        1           0.004530086   -0.008216970   -0.003035655
     19        1          -0.004965309   -0.008496464    0.000040092
     20        1          -0.009378678   -0.000043363    0.003081656
     21        1          -0.005705216    0.004189302    0.002666413
     22       17          -0.002484212   -0.000128074    0.000794381
 -------------------------------------------------------------------
 Cartesian Forces:  Max     0.024431223 RMS     0.008992940

 GradGradGradGradGradGradGradGradGradGradGradGradGradGradGradGradGradGrad
 Berny optimization.
 FormGI is forming the generalized inverse of G from B-inverse, IUseBI=4.
 Internal  Forces:  Max     0.014352917 RMS     0.004474368
 Search for a local minimum.
 Step number   1 out of a maximum of  121
 All quantities printed in internal units (Hartrees-Bohrs-Radians)
 Mixed Optimization -- RFO/linear search
 Second derivative matrix not updated -- first step.
 ITU=  0
     Eigenvalues ---    0.00237   0.01506   0.01506   0.02070   0.02070
     Eigenvalues ---    0.02070   0.02070   0.02070   0.02070   0.02070
     Eigenvalues ---    0.02070   0.02070   0.02070   0.02070   0.02070
     Eigenvalues ---    0.02070   0.02070   0.02070   0.02070   0.16000
     Eigenvalues ---    0.16000   0.16000   0.16000   0.16000   0.16000
     Eigenvalues ---    0.16000   0.16000   0.16000   0.22000   0.22000
     Eigenvalues ---    0.22000   0.23478   0.23485   0.23493   0.25000
     Eigenvalues ---    0.25000   0.25000   0.28519   0.29539   0.37230
     Eigenvalues ---    0.37230   0.37230   0.37230   0.37230   0.37230
     Eigenvalues ---    0.37230   0.37230   0.37230   0.41268   0.41364
     Eigenvalues ---    0.41459   0.41554   0.45389   0.45389   0.45389
     Eigenvalues ---    0.45389   0.45389   0.45389   0.45389   0.45389
 RFO step:  Lambda=-6.91577631D-03 EMin= 2.36824176D-03
 Linear search not attempted -- first point.
 Iteration  1 RMS(Cart)=  0.01981625 RMS(Int)=  0.00024588
 Iteration  2 RMS(Cart)=  0.00031853 RMS(Int)=  0.00002983
 Iteration  3 RMS(Cart)=  0.00000005 RMS(Int)=  0.00002983
 Variable       Old X    -DE/DX   Delta X   Delta X   Delta X     New X
                                 (Linear)    (Quad)   (Total)
    R1        2.64826   0.00003   0.00000   0.00073   0.00077   2.64903
    R2        2.64826   0.00110   0.00000   0.00304   0.00306   2.65132
    R3        2.91018  -0.01435   0.00000  -0.04914  -0.04914   2.86104
    R4        2.64826  -0.01004   0.00000  -0.02179  -0.02177   2.62649
    R5        2.02201   0.00628   0.00000   0.01656   0.01656   2.03857
    R6        2.64826  -0.01122   0.00000  -0.02502  -0.02504   2.62322
    R7        3.32592  -0.00261   0.00000  -0.00863  -0.00863   3.31728
    R8        2.64826  -0.00972   0.00000  -0.02175  -0.02179   2.62648
    R9        2.02201   0.00916   0.00000   0.02415   0.02415   2.04616
   R10        2.64826  -0.00753   0.00000  -0.01634  -0.01636   2.63190
   R11        2.02201   0.00945   0.00000   0.02493   0.02493   2.04694
   R12        2.02201   0.00660   0.00000   0.01739   0.01739   2.03940
   R13        2.64826   0.00110   0.00000   0.00300   0.00306   2.65132
   R14        2.64826   0.00095   0.00000   0.00266   0.00272   2.65098
   R15        2.64826  -0.00751   0.00000  -0.01629  -0.01629   2.63197
   R16        2.02201   0.00702   0.00000   0.01850   0.01850   2.04051
   R17        2.64826  -0.00850   0.00000  -0.01904  -0.01910   2.62916
   R18        2.02201   0.00986   0.00000   0.02600   0.02600   2.04801
   R19        2.64826  -0.00845   0.00000  -0.01894  -0.01900   2.62927
   R20        2.02201   0.00984   0.00000   0.02595   0.02595   2.04796
   R21        2.64826  -0.00746   0.00000  -0.01619  -0.01619   2.63208
   R22        2.02201   0.00987   0.00000   0.02603   0.02603   2.04804
   R23        2.02201   0.00688   0.00000   0.01815   0.01815   2.04015
    A1        2.09440  -0.01072   0.00000  -0.03953  -0.03948   2.05492
    A2        2.09440   0.00370   0.00000   0.01329   0.01327   2.10766
    A3        2.09440   0.00702   0.00000   0.02624   0.02621   2.12061
    A4        2.09440   0.00178   0.00000   0.00895   0.00901   2.10341
    A5        2.09440   0.00285   0.00000   0.01792   0.01789   2.11228
    A6        2.09440  -0.00463   0.00000  -0.02687  -0.02690   2.06750
    A7        2.09440   0.00740   0.00000   0.02732   0.02733   2.12172
    A8        2.09440  -0.00382   0.00000  -0.01414  -0.01414   2.08026
    A9        2.09440  -0.00358   0.00000  -0.01319  -0.01319   2.08121
   A10        2.09440  -0.00599   0.00000  -0.02941  -0.02947   2.06493
   A11        2.09440   0.00217   0.00000   0.00975   0.00978   2.10418
   A12        2.09440   0.00382   0.00000   0.01966   0.01969   2.11408
   A13        2.09440   0.00344   0.00000   0.01356   0.01350   2.10789
   A14        2.09440  -0.00277   0.00000  -0.01305  -0.01302   2.08137
   A15        2.09440  -0.00067   0.00000  -0.00050  -0.00047   2.09392
   A16        2.09440   0.00408   0.00000   0.01912   0.01911   2.11350
   A17        2.09440   0.00102   0.00000   0.00878   0.00878   2.10318
   A18        2.09440  -0.00510   0.00000  -0.02789  -0.02789   2.06650
   A19        2.09440   0.00581   0.00000   0.02192   0.02186   2.11626
   A20        2.09440   0.00542   0.00000   0.02038   0.02033   2.11472
   A21        2.09440  -0.01123   0.00000  -0.04230  -0.04219   2.05221
   A22        2.09440   0.00484   0.00000   0.02163   0.02169   2.11609
   A23        2.09440   0.00086   0.00000   0.00880   0.00877   2.10316
   A24        2.09440  -0.00569   0.00000  -0.03043  -0.03046   2.06394
   A25        2.09440   0.00182   0.00000   0.00585   0.00579   2.10019
   A26        2.09440  -0.00108   0.00000  -0.00391  -0.00388   2.09052
   A27        2.09440  -0.00075   0.00000  -0.00194  -0.00192   2.09248
   A28        2.09440  -0.00210   0.00000  -0.01267  -0.01279   2.08161
   A29        2.09440   0.00104   0.00000   0.00629   0.00635   2.10075
   A30        2.09440   0.00106   0.00000   0.00638   0.00644   2.10083
   A31        2.09440   0.00192   0.00000   0.00628   0.00622   2.10061
   A32        2.09440  -0.00079   0.00000  -0.00211  -0.00208   2.09231
   A33        2.09440  -0.00113   0.00000  -0.00417  -0.00414   2.09026
   A34        2.09440   0.00474   0.00000   0.02121   0.02127   2.11567
   A35        2.09440   0.00080   0.00000   0.00841   0.00838   2.10277
   A36        2.09440  -0.00554   0.00000  -0.02962  -0.02965   2.06474
    D1        0.00000  -0.00000   0.00000  -0.00000  -0.00000   0.00000
    D2        3.14159   0.00000   0.00000   0.00000   0.00000   3.14159
    D3       -3.14159  -0.00000   0.00000  -0.00000  -0.00000  -3.14159
    D4       -0.00000   0.00000   0.00000   0.00000   0.00000  -0.00000
    D5       -0.00000   0.00000   0.00000   0.00000   0.00000  -0.00000
    D6        3.14159   0.00000   0.00000   0.00000   0.00000   3.14159
    D7        3.14159   0.00000   0.00000   0.00000   0.00000   3.14159
    D8        0.00000  -0.00000   0.00000  -0.00000  -0.00000  -0.00000
    D9       -0.00000  -0.00000   0.00000  -0.00000  -0.00000  -0.00001
   D10        3.14159  -0.00000   0.00000  -0.00000  -0.00000   3.14159
   D11        3.14159  -0.00000   0.00000  -0.00000  -0.00000   3.14159
   D12       -0.00000  -0.00000   0.00000  -0.00000  -0.00000  -0.00001
   D13        0.00000  -0.00000   0.00000  -0.00000  -0.00000  -0.00000
   D14        3.14159   0.00000   0.00000   0.00000   0.00000  -3.14159
   D15       -3.14159  -0.00000   0.00000  -0.00000  -0.00000  -3.14159
   D16        0.00000  -0.00000   0.00000  -0.00000  -0.00000   0.00000
   D17       -0.00000   0.00000   0.00000   0.00000   0.00000  -0.00000
   D18        3.14159   0.00000   0.00000   0.00000   0.00000   3.14159
   D19        3.14159   0.00000   0.00000   0.00000   0.00000   3.14159
   D20        0.00000  -0.00000   0.00000  -0.00000  -0.00000  -0.00000
   D21        0.00000  -0.00000   0.00000  -0.00000  -0.00000   0.00000
   D22       -3.14159  -0.00000   0.00000  -0.00000  -0.00000  -3.14159
   D23       -3.14159  -0.00000   0.00000  -0.00000  -0.00000   3.14159
   D24        0.00000  -0.00000   0.00000  -0.00000  -0.00000   0.00000
   D25       -0.00000   0.00000   0.00000   0.00000   0.00000   0.00000
   D26        3.14159   0.00000   0.00000   0.00000   0.00000  -3.14159
   D27        3.14159   0.00000   0.00000   0.00000   0.00000   3.14159
   D28       -0.00000   0.00000   0.00000   0.00000   0.00000  -0.00000
   D29        3.14159   0.00000   0.00000   0.00000   0.00000  -3.14159
   D30        0.00000  -0.00000   0.00000  -0.00000  -0.00000   0.00000
   D31        0.00000  -0.00000   0.00000  -0.00000  -0.00000   0.00000
   D32       -3.14159  -0.00000   0.00000  -0.00000  -0.00000  -3.14159
   D33       -3.14159  -0.00000   0.00000  -0.00000  -0.00000   3.14159
   D34        0.00000  -0.00000   0.00000  -0.00000  -0.00000  -0.00000
   D35       -0.00000   0.00000   0.00000   0.00000   0.00000  -0.00000
   D36        3.14159   0.00000   0.00000   0.00000   0.00000   3.14159
   D37       -0.00000  -0.00000   0.00000   0.00000   0.00000  -0.00000
   D38        3.14159  -0.00000   0.00000  -0.00000  -0.00000   3.14159
   D39        3.14159   0.00000   0.00000   0.00000   0.00000   3.14159
   D40       -0.00000   0.00000   0.00000   0.00000   0.00000  -0.00000
   D41       -0.00000   0.00000   0.00000   0.00000   0.00000  -0.00000
   D42       -3.14159  -0.00000   0.00000  -0.00000  -0.00000  -3.14159
   D43        3.14159   0.00000   0.00000   0.00000   0.00000  -3.14159
   D44        0.00000  -0.00000   0.00000  -0.00000  -0.00000   0.00000
   D45        0.00000   0.00000   0.00000   0.00000   0.00000   0.00000
   D46       -3.14159  -0.00000   0.00000  -0.00000  -0.00000  -3.14159
   D47        3.14159   0.00000   0.00000   0.00000   0.00000  -3.14159
   D48        0.00000  -0.00000   0.00000  -0.00000  -0.00000   0.00000
   D49        0.00000  -0.00000   0.00000  -0.00000  -0.00000  -0.00000
   D50       -3.14159  -0.00000   0.00000  -0.00000  -0.00000  -3.14159
   D51        3.14159   0.00000   0.00000   0.00000   0.00000   3.14159
   D52       -0.00000   0.00000   0.00000   0.00000   0.00000  -0.00000
         Item               Value     Threshold  Converged?
 Maximum Force            0.014353     0.000450     NO 
 RMS     Force            0.004474     0.000300     NO 
 Maximum Displacement     0.083276     0.001800     NO 
 RMS     Displacement     0.019844     0.001200     NO 
 Predicted change in Energy=-3.538894D-03
 GradGradGradGradGradGradGradGradGradGradGradGradGradGradGradGradGradGrad

                          Input orientation:                          
 ---------------------------------------------------------------------
 Center     Atomic      Atomic             Coordinates (Angstroms)
 Number     Number       Type             X           Y           Z
 ---------------------------------------------------------------------
      1          6           0       -0.336352   -1.580737   -0.001120
      2          6           0        0.997006   -1.529254   -0.430731
      3          6           0        1.691625   -0.325402   -0.433483
      4          6           0        1.097313    0.857424   -0.015541
      5          6           0       -0.224476    0.815777    0.412105
      6          6           0       -0.933287   -0.383077    0.420471
      7          6           0       -1.098208   -2.889071    0.004161
      8          6           0       -0.496086   -4.083724   -0.418582
      9          6           0       -1.197135   -5.287192   -0.413640
     10          6           0       -2.520247   -5.327829    0.014639
     11          6           0       -3.134657   -4.153343    0.437643
     12          6           0       -2.432707   -2.950336    0.432317
     13          1           0        1.507855   -2.418275   -0.765997
     14          1           0        1.653750    1.786246   -0.024421
     15          1           0       -0.703296    1.729847    0.741523
     16          1           0       -1.957587   -0.371448    0.760114
     17          1           0        0.529067   -4.090717   -0.757640
     18          1           0       -0.708653   -6.196009   -0.745261
     19          1           0       -3.066227   -6.263974    0.018698
     20          1           0       -4.164950   -4.173578    0.773282
     21          1           0       -2.941771   -2.059204    0.767397
     22         17           0        3.360102   -0.300927   -0.978572
 ---------------------------------------------------------------------
                    Distance matrix (angstroms):
                    1          2          3          4          5
     1  C    0.000000
     2  C    1.401806   0.000000
     3  C    2.423942   1.389879   0.000000
     4  C    2.828468   2.424598   1.388149   0.000000
     5  C    2.434451   2.775169   2.385111   1.389871   0.000000
     6  C    1.403018   2.400896   2.760929   2.419150   1.392744
     7  C    1.513998   2.535381   3.814066   4.342456   3.828280
     8  C    2.542584   2.958849   4.348711   5.207332   4.976839
     9  C    3.827392   4.351626   5.741488   6.571094   6.234915
    10  C    4.337090   5.196018   6.554766   7.165543   6.570574
    11  C    3.826399   4.970972   6.221334   6.574400   5.758643
    12  C    2.541333   3.811464   4.964877   5.211588   4.365811
    13  H    2.165088   1.078762   2.127076   3.385547   3.853309
    14  H    3.911217   3.404253   2.151238   1.082779   2.158726
    15  H    3.412644   3.858361   3.367541   2.139267   1.083194
    16  H    2.161079   3.389432   3.839732   3.382925   2.129386
    17  H    2.760665   2.624296   3.954013   5.035644   5.099983
    18  H    4.689679   4.978635   6.350005   7.317439   7.123136
    19  H    5.420822   6.255351   7.622877   8.249275   7.638926
    20  H    4.688356   5.923503   7.110851   7.322884   6.368002
    21  H    2.758217   4.150943   5.090829   5.043204   3.971831
    22  Cl   4.032009   2.719033   1.755431   2.718348   4.003775
                    6          7          8          9         10
     6  C    0.000000
     7  C    2.545686   0.000000
     8  C    3.819678   1.403018   0.000000
     9  C    4.981536   2.436253   1.392778   0.000000
    10  C    5.209003   2.823092   2.415100   1.391294   0.000000
    11  C    4.365917   2.435860   2.774892   2.400893   1.391348
    12  C    2.973082   1.402839   2.399812   2.775460   2.415490
    13  H    3.392479   2.757963   2.628726   3.958764   5.029961
    14  H    3.405385   5.425189   6.263681   7.636266   8.248263
    15  H    2.149516   4.694046   5.931812   7.128613   7.323966
    16  H    1.079205   2.765578   4.160084   5.110825   5.043613
    17  H    4.156083   2.161555   1.079791   2.128300   3.380115
    18  H    5.932923   3.413096   2.147941   1.083760   2.147803
    19  H    6.268636   3.906824   3.398577   2.152794   1.083733
    20  H    4.993598   3.412683   3.858649   3.384795   2.147762
    21  H    2.638895   2.161003   3.389189   3.854674   3.380568
    22  Cl   4.516333   5.247932   5.430776   6.778673   7.799662
                   11         12         13         14         15
    11  C    0.000000
    12  C    1.392835   0.000000
    13  H    5.100209   4.152960   0.000000
    14  H    7.643367   6.272395   4.271911   0.000000
    15  H    6.373052   4.999059   4.936469   2.479015   0.000000
    16  H    3.973942   2.642698   4.304394   4.279356   2.447250
    17  H    3.854283   3.389480   1.937823   6.028368   6.135567
    18  H    3.384854   3.859203   4.380024   8.355654   8.064103
    19  H    2.152895   3.398915   6.027219   9.331992   8.367024
    20  H    1.083774   2.147846   6.134426   8.367383   6.843573
    21  H    2.128700   1.079603   4.720107   6.044276   4.400949
    22  Cl   7.683012   6.524309   2.821200   2.859779   4.857363
                   16         17         18         19         20
    16  H    0.000000
    17  H    4.724404   0.000000
    18  H    6.144225   2.442203   0.000000
    19  H    6.041576   4.272222   2.479195   0.000000
    20  H    4.396455   4.938054   4.282778   2.479182   0.000000
    21  H    1.953764   4.301105   4.938432   4.272719   2.442699
    22  Cl   5.595160   4.735618   7.166672   8.823275   8.642501
                   21         22
    21  H    0.000000
    22  Cl   6.771525   0.000000
 Stoichiometry    C12H9Cl
 Framework group  C1[X(C12H9Cl)]
 Deg. of freedom    60
 Full point group                 C1      NOp   1
 Largest Abelian subgroup         C1      NOp   1
 Largest concise Abelian subgroup C1      NOp   1
                         Standard orientation:                         
 ---------------------------------------------------------------------
 Center     Atomic      Atomic             Coordinates (Angstroms)
 Number     Number       Type             X           Y           Z
 ---------------------------------------------------------------------
      1          6           0        0.024360    0.475659   -0.000001
      2          6           0        1.026181   -0.504858    0.000001
      3          6           0        2.368074   -0.142803    0.000001
      4          6           0        2.761551    1.188413   -0.000001
      5          6           0        1.774964    2.167386   -0.000003
      6          6           0        0.426270    1.819880   -0.000003
      7          6           0       -1.439032    0.087493    0.000000
      8          6           0       -1.835089   -1.258463   -0.000004
      9          6           0       -3.181374   -1.615321   -0.000004
     10          6           0       -4.168217   -0.634587    0.000000
     11          6           0       -3.795112    0.705802    0.000005
     12          6           0       -2.448495    1.061630    0.000005
     13          1           0        0.776922   -1.554429    0.000003
     14          1           0        3.811736    1.452085   -0.000002
     15          1           0        2.064877    3.211062   -0.000006
     16          1           0       -0.307685    2.611077   -0.000005
     17          1           0       -1.097286   -2.046876   -0.000007
     18          1           0       -3.460627   -2.662486   -0.000008
     19          1           0       -5.215927   -0.911678    0.000000
     20          1           0       -4.555607    1.477950    0.000009
     21          1           0       -2.196473    2.111404    0.000008
     22         17           0        3.593858   -1.399382    0.000002
 ---------------------------------------------------------------------
 Rotational constants (GHZ):           1.6704356           0.3639600           0.2988464
 Standard basis: 6-311+G(d,p) (5D, 7F)
 There are   361 symmetry adapted cartesian basis functions of A   symmetry.
 There are   348 symmetry adapted basis functions of A   symmetry.
   348 basis functions,   557 primitive gaussians,   361 cartesian basis functions
    49 alpha electrons       49 beta electrons
       nuclear repulsion energy       761.9365267633 Hartrees.
 NAtoms=   22 NActive=   22 NUniq=   22 SFac= 1.00D+00 NAtFMM=   60 NAOKFM=F Big=F
 Integral buffers will be    131072 words long.
 Raffenetti 2 integral format.
 Two-electron integral symmetry is turned on.
 One-electron integrals computed using PRISM.
 NBasis=   348 RedAO= T EigKep=  2.16D-06  NBF=   348
 NBsUse=   344 1.00D-06 EigRej=  8.91D-07 NBFU=   344
 Initial guess from the checkpoint file:  "/scratch/pkc/Gau-3243.chk"
 B after Tr=     0.000000    0.000000   -0.000000
         Rot=    0.999997   -0.000000    0.000000    0.002410 Ang=   0.28 deg.
 ExpMin= 4.38D-02 ExpMax= 1.06D+05 ExpMxC= 3.62D+03 IAcc=3 IRadAn=         5 AccDes= 0.00D+00
 Harris functional with IExCor=  402 and IRadAn=       5 diagonalized for initial guess.
 HarFok:  IExCor=  402 AccDes= 0.00D+00 IRadAn=         5 IDoV= 1 UseB2=F ITyADJ=14
 ICtDFT=  3500011 ScaDFX=  1.000000  1.000000  1.000000  1.000000
 FoFCou: FMM=F IPFlag=           0 FMFlag=      100000 FMFlg1=           0
         NFxFlg=           0 DoJE=T BraDBF=F KetDBF=T FulRan=T
         wScrn=  0.000000 ICntrl=       500 IOpCl=  0 I1Cent=   200000004 NGrid=           0
         NMat0=    1 NMatS0=      1 NMatT0=    0 NMatD0=    1 NMtDS0=    0 NMtDT0=    0
 Petite list used in FoFCou.
 Requested convergence on RMS density matrix=1.00D-08 within  32 cycles.
 Requested convergence on MAX density matrix=1.00D-06.
 Requested convergence on             energy=1.00D-06.
 No special actions if energy rises.
 SCF Done:  E(RB3LYP) =  -923.041973206     A.U. after   14 cycles
            NFock= 14  Conv=0.39D-09     -V/T= 2.0035
 QCSCF skips out because SCF is already converged.
 Calling FoFJK, ICntrl=      2127 FMM=F ISym2X=0 I1Cent= 0 IOpClX= 0 NMat=1 NMatS=1 NMatT=0.
 ***** Axes restored to original set *****
 -------------------------------------------------------------------
 Center     Atomic                   Forces (Hartrees/Bohr)
 Number     Number              X              Y              Z
 -------------------------------------------------------------------
      1        6          -0.006621478   -0.009646209    0.000369843
      2        6           0.001174146    0.001678473   -0.000071559
      3        6          -0.002545499   -0.001900815    0.000481616
      4        6           0.001817682    0.002948348   -0.000045118
      5        6          -0.001725423   -0.002305654    0.000135400
      6        6           0.001951043    0.001855522   -0.000294290
      7        6           0.006167876    0.010256758   -0.000105758
      8        6          -0.002191460   -0.001667572    0.000408828
      9        6           0.001050445    0.000976288   -0.000162741
     10        6          -0.000819963   -0.001309638    0.000024192
     11        6           0.000266446    0.001352411    0.000166232
     12        6          -0.000393162   -0.002764010   -0.000389576
     13        1           0.000966302   -0.000217254   -0.000359142
     14        1           0.000062756   -0.000401030   -0.000095996
     15        1          -0.000721483    0.000158790    0.000267535
     16        1          -0.001130643    0.000296097    0.000428086
     17        1           0.001104325   -0.000441556   -0.000446807
     18        1           0.000670152    0.000048223   -0.000211708
     19        1          -0.000109220   -0.000174912    0.000003126
     20        1          -0.000307040    0.000583030    0.000210638
     21        1          -0.000844341    0.000969151    0.000460215
     22       17           0.002178539   -0.000294440   -0.000773015
 -------------------------------------------------------------------
 Cartesian Forces:  Max     0.010256758 RMS     0.002328768

 GradGradGradGradGradGradGradGradGradGradGradGradGradGradGradGradGradGrad
 Berny optimization.
 Using GEDIIS/GDIIS optimizer.
 FormGI is forming the generalized inverse of G from B-inverse, IUseBI=4.
 Internal  Forces:  Max     0.009076688 RMS     0.001079889
 Search for a local minimum.
 Step number   2 out of a maximum of  121
 All quantities printed in internal units (Hartrees-Bohrs-Radians)
 Mixed Optimization -- RFO/linear search
 Update second derivatives using D2CorX and points    1    2
 DE= -3.91D-03 DEPred=-3.54D-03 R= 1.10D+00
 TightC=F SS=  1.41D+00  RLast= 1.54D-01 DXNew= 5.0454D-01 4.6076D-01
 Trust test= 1.10D+00 RLast= 1.54D-01 DXMaxT set to 4.61D-01
 ITU=  1  0
 Use linear search instead of GDIIS.
     Eigenvalues ---    0.00237   0.01481   0.01482   0.02070   0.02070
     Eigenvalues ---    0.02070   0.02070   0.02070   0.02070   0.02070
     Eigenvalues ---    0.02070   0.02070   0.02070   0.02070   0.02070
     Eigenvalues ---    0.02070   0.02070   0.02070   0.02070   0.15408
     Eigenvalues ---    0.16000   0.16000   0.16000   0.16000   0.16000
     Eigenvalues ---    0.16000   0.16000   0.16156   0.20375   0.22000
     Eigenvalues ---    0.22002   0.22161   0.23467   0.23498   0.24990
     Eigenvalues ---    0.25000   0.25081   0.26947   0.29740   0.36935
     Eigenvalues ---    0.37230   0.37230   0.37230   0.37230   0.37230
     Eigenvalues ---    0.37230   0.37230   0.37992   0.41137   0.41238
     Eigenvalues ---    0.41554   0.42173   0.44924   0.45389   0.45389
     Eigenvalues ---    0.45389   0.45389   0.45389   0.45389   0.49172
 RFO step:  Lambda=-4.31835295D-04 EMin= 2.36824176D-03
 Quartic linear search produced a step of  0.14477.
 Iteration  1 RMS(Cart)=  0.00731577 RMS(Int)=  0.00002058
 Iteration  2 RMS(Cart)=  0.00002572 RMS(Int)=  0.00000513
 Iteration  3 RMS(Cart)=  0.00000000 RMS(Int)=  0.00000513
 Variable       Old X    -DE/DX   Delta X   Delta X   Delta X     New X
                                 (Linear)    (Quad)   (Total)
    R1        2.64903   0.00186   0.00011   0.00458   0.00470   2.65372
    R2        2.65132   0.00080   0.00044   0.00161   0.00205   2.65337
    R3        2.86104  -0.00908  -0.00711  -0.03208  -0.03920   2.82185
    R4        2.62649  -0.00075  -0.00315   0.00007  -0.00308   2.62341
    R5        2.03857   0.00075   0.00240   0.00087   0.00327   2.04183
    R6        2.62322   0.00138  -0.00363   0.00578   0.00216   2.62538
    R7        3.31728   0.00231  -0.00125   0.00968   0.00843   3.32571
    R8        2.62648   0.00193  -0.00315   0.00680   0.00364   2.63011
    R9        2.04616  -0.00031   0.00350  -0.00304   0.00046   2.04661
   R10        2.63190  -0.00127  -0.00237  -0.00189  -0.00426   2.62764
   R11        2.04694   0.00053   0.00361  -0.00051   0.00310   2.05004
   R12        2.03940   0.00121   0.00252   0.00222   0.00474   2.04414
   R13        2.65132   0.00107   0.00044   0.00236   0.00281   2.65413
   R14        2.65098   0.00108   0.00039   0.00242   0.00283   2.65381
   R15        2.63197  -0.00082  -0.00236  -0.00067  -0.00303   2.62894
   R16        2.04051   0.00119   0.00268   0.00206   0.00474   2.04525
   R17        2.62916   0.00121  -0.00276   0.00477   0.00200   2.63116
   R18        2.04801   0.00033   0.00376  -0.00124   0.00252   2.05053
   R19        2.62927   0.00111  -0.00275   0.00449   0.00173   2.63099
   R20        2.04796   0.00021   0.00376  -0.00161   0.00215   2.05011
   R21        2.63208  -0.00083  -0.00234  -0.00071  -0.00306   2.62902
   R22        2.04804   0.00035   0.00377  -0.00118   0.00259   2.05062
   R23        2.04015   0.00134   0.00263   0.00255   0.00518   2.04533
    A1        2.05492  -0.00104  -0.00572  -0.00172  -0.00743   2.04749
    A2        2.10766   0.00101   0.00192   0.00369   0.00560   2.11326
    A3        2.12061   0.00002   0.00379  -0.00197   0.00182   2.12243
    A4        2.10341   0.00045   0.00130   0.00154   0.00285   2.10626
    A5        2.11228   0.00053   0.00259   0.00259   0.00517   2.11745
    A6        2.06750  -0.00098  -0.00389  -0.00413  -0.00802   2.05947
    A7        2.12172   0.00053   0.00396   0.00044   0.00440   2.12613
    A8        2.08026  -0.00082  -0.00205  -0.00269  -0.00474   2.07551
    A9        2.08121   0.00028  -0.00191   0.00225   0.00034   2.08155
   A10        2.06493  -0.00127  -0.00427  -0.00358  -0.00786   2.05707
   A11        2.10418   0.00035   0.00142   0.00021   0.00163   2.10581
   A12        2.11408   0.00092   0.00285   0.00337   0.00622   2.12030
   A13        2.10789   0.00064   0.00195   0.00198   0.00393   2.11182
   A14        2.08137   0.00027  -0.00189   0.00379   0.00191   2.08328
   A15        2.09392  -0.00091  -0.00007  -0.00577  -0.00583   2.08809
   A16        2.11350   0.00069   0.00277   0.00133   0.00410   2.11760
   A17        2.10318  -0.00005   0.00127  -0.00024   0.00103   2.10420
   A18        2.06650  -0.00064  -0.00404  -0.00109  -0.00513   2.06138
   A19        2.11626   0.00118   0.00316   0.00367   0.00682   2.12308
   A20        2.11472   0.00009   0.00294  -0.00116   0.00178   2.11650
   A21        2.05221  -0.00127  -0.00611  -0.00251  -0.00860   2.04361
   A22        2.11609   0.00072   0.00314   0.00156   0.00471   2.12080
   A23        2.10316   0.00009   0.00127   0.00064   0.00191   2.10507
   A24        2.06394  -0.00081  -0.00441  -0.00220  -0.00662   2.05732
   A25        2.10019   0.00029   0.00084   0.00102   0.00185   2.10204
   A26        2.09052  -0.00078  -0.00056  -0.00498  -0.00554   2.08498
   A27        2.09248   0.00050  -0.00028   0.00396   0.00369   2.09617
   A28        2.08161  -0.00078  -0.00185  -0.00273  -0.00460   2.07701
   A29        2.10075   0.00040   0.00092   0.00141   0.00234   2.10309
   A30        2.10083   0.00038   0.00093   0.00131   0.00225   2.10309
   A31        2.10061   0.00016   0.00090   0.00028   0.00117   2.10179
   A32        2.09231   0.00053  -0.00030   0.00414   0.00384   2.09616
   A33        2.09026  -0.00069  -0.00060  -0.00442  -0.00502   2.08524
   A34        2.11567   0.00088   0.00308   0.00237   0.00546   2.12113
   A35        2.10277  -0.00018   0.00121  -0.00105   0.00016   2.10294
   A36        2.06474  -0.00070  -0.00429  -0.00132  -0.00562   2.05912
    D1        0.00000  -0.00000  -0.00000  -0.00000  -0.00000  -0.00000
    D2        3.14159  -0.00000   0.00000  -0.00000  -0.00000   3.14159
    D3       -3.14159  -0.00000  -0.00000  -0.00000  -0.00000  -3.14159
    D4       -0.00000  -0.00000   0.00000  -0.00000  -0.00000  -0.00000
    D5       -0.00000   0.00000   0.00000   0.00000   0.00000   0.00000
    D6        3.14159  -0.00000   0.00000  -0.00000  -0.00000   3.14159
    D7        3.14159   0.00000   0.00000   0.00000   0.00000   3.14159
    D8       -0.00000  -0.00000  -0.00000  -0.00000  -0.00000  -0.00000
    D9       -0.00001  -0.00000  -0.00000  -0.00001  -0.00002  -0.00002
   D10        3.14159  -0.00000  -0.00000  -0.00002  -0.00002   3.14157
   D11        3.14159  -0.00000  -0.00000  -0.00001  -0.00002   3.14157
   D12       -0.00001  -0.00000  -0.00000  -0.00002  -0.00002  -0.00002
   D13       -0.00000   0.00000  -0.00000   0.00000   0.00000   0.00000
   D14       -3.14159  -0.00000   0.00000  -0.00000  -0.00000   3.14159
   D15       -3.14159   0.00000  -0.00000   0.00000   0.00000  -3.14159
   D16        0.00000  -0.00000  -0.00000  -0.00000  -0.00000   0.00000
   D17       -0.00000   0.00000   0.00000  -0.00000   0.00000  -0.00000
   D18        3.14159  -0.00000   0.00000  -0.00000  -0.00000   3.14159
   D19        3.14159   0.00000   0.00000   0.00000   0.00000  -3.14159
   D20       -0.00000   0.00000  -0.00000   0.00000   0.00000   0.00000
   D21        0.00000  -0.00000  -0.00000   0.00000  -0.00000   0.00000
   D22       -3.14159  -0.00000  -0.00000  -0.00000  -0.00000  -3.14159
   D23        3.14159   0.00000  -0.00000   0.00000   0.00000  -3.14159
   D24        0.00000  -0.00000  -0.00000  -0.00000  -0.00000   0.00000
   D25        0.00000  -0.00000   0.00000  -0.00000  -0.00000  -0.00000
   D26       -3.14159   0.00000   0.00000   0.00000   0.00000  -3.14159
   D27        3.14159   0.00000   0.00000   0.00000   0.00000   3.14159
   D28       -0.00000   0.00000   0.00000   0.00000   0.00000   0.00000
   D29       -3.14159  -0.00000   0.00000  -0.00000  -0.00000  -3.14159
   D30        0.00000  -0.00000  -0.00000  -0.00000  -0.00000  -0.00000
   D31        0.00000  -0.00000  -0.00000  -0.00000  -0.00000   0.00000
   D32       -3.14159  -0.00000  -0.00000  -0.00000  -0.00000   3.14159
   D33        3.14159   0.00000  -0.00000   0.00000   0.00000  -3.14159
   D34       -0.00000  -0.00000  -0.00000  -0.00000  -0.00000  -0.00000
   D35       -0.00000   0.00000   0.00000  -0.00000  -0.00000  -0.00000
   D36        3.14159  -0.00000   0.00000  -0.00000  -0.00000   3.14159
   D37       -0.00000   0.00000   0.00000   0.00000   0.00000  -0.00000
   D38        3.14159   0.00000  -0.00000   0.00000   0.00000   3.14159
   D39        3.14159   0.00000   0.00000   0.00000   0.00000  -3.14159
   D40       -0.00000   0.00000   0.00000   0.00000   0.00000   0.00000
   D41       -0.00000   0.00000   0.00000  -0.00000   0.00000  -0.00000
   D42       -3.14159  -0.00000  -0.00000  -0.00000  -0.00000   3.14159
   D43       -3.14159  -0.00000   0.00000  -0.00000  -0.00000  -3.14159
   D44        0.00000  -0.00000  -0.00000  -0.00000  -0.00000   0.00000
   D45        0.00000  -0.00000   0.00000  -0.00000  -0.00000   0.00000
   D46       -3.14159  -0.00000  -0.00000  -0.00000  -0.00000  -3.14159
   D47       -3.14159   0.00000   0.00000  -0.00000   0.00000  -3.14159
   D48        0.00000  -0.00000  -0.00000  -0.00000  -0.00000   0.00000
   D49       -0.00000   0.00000  -0.00000   0.00000   0.00000  -0.00000
   D50       -3.14159   0.00000  -0.00000   0.00000   0.00000  -3.14159
   D51        3.14159   0.00000   0.00000   0.00000   0.00000   3.14159
   D52       -0.00000   0.00000   0.00000   0.00000   0.00000   0.00000
         Item               Value     Threshold  Converged?
 Maximum Force            0.009077     0.000450     NO 
 RMS     Force            0.001080     0.000300     NO 
 Maximum Displacement     0.031521     0.001800     NO 
 RMS     Displacement     0.007323     0.001200     NO 
 Predicted change in Energy=-2.814575D-04
 GradGradGradGradGradGradGradGradGradGradGradGradGradGradGradGradGradGrad

                          Input orientation:                          
 ---------------------------------------------------------------------
 Center     Atomic      Atomic             Coordinates (Angstroms)
 Number     Number       Type             X           Y           Z
 ---------------------------------------------------------------------
      1          6           0       -0.338994   -1.591320   -0.002238
      2          6           0        0.996869   -1.531560   -0.431110
      3          6           0        1.687217   -0.327127   -0.432346
      4          6           0        1.093982    0.857582   -0.014415
      5          6           0       -0.229849    0.806936    0.412205
      6          6           0       -0.934602   -0.391699    0.419275
      7          6           0       -1.090024   -2.881957    0.002800
      8          6           0       -0.495028   -4.082357   -0.418685
      9          6           0       -1.197278   -5.283266   -0.412866
     10          6           0       -2.521394   -5.324024    0.015732
     11          6           0       -3.130878   -4.145584    0.437866
     12          6           0       -2.425976   -2.946188    0.430889
     13          1           0        1.518402   -2.415494   -0.768932
     14          1           0        1.650276    1.786772   -0.023179
     15          1           0       -0.717088    1.717719    0.743772
     16          1           0       -1.961101   -0.377351    0.760146
     17          1           0        0.531911   -4.098321   -0.760026
     18          1           0       -0.704788   -6.191095   -0.745629
     19          1           0       -3.069941   -6.259981    0.020673
     20          1           0       -4.162097   -4.156898    0.775494
     21          1           0       -2.938351   -2.054110    0.767246
     22         17           0        3.359812   -0.305483   -0.979311
 ---------------------------------------------------------------------
                    Distance matrix (angstroms):
                    1          2          3          4          5
     1  C    0.000000
     2  C    1.404290   0.000000
     3  C    2.426665   1.388250   0.000000
     4  C    2.837373   2.427151   1.389291   0.000000
     5  C    2.436249   2.772108   2.382122   1.391796   0.000000
     6  C    1.404106   2.398545   2.757419   2.421557   1.390487
     7  C    1.493256   2.523285   3.798627   4.330626   3.809914
     8  C    2.530423   2.955077   4.343286   5.204938   4.966477
     9  C    3.812576   4.346253   5.734457   6.566479   6.221513
    10  C    4.323919   5.192362   6.548446   7.161291   6.557213
    11  C    3.809537   4.962513   6.209019   6.563967   5.739694
    12  C    2.525621   3.802642   4.952071   5.201640   4.348479
    13  H    2.171866   1.080491   2.122043   3.385625   3.851691
    14  H    3.920349   3.406564   2.153452   1.083022   2.164372
    15  H    3.413096   3.856917   3.368283   2.143515   1.084834
    16  H    2.164759   3.391294   3.838591   3.385045   2.126225
    17  H    2.760031   2.629188   3.957777   5.043097   5.100583
    18  H    4.673796   4.970496   6.340816   7.311230   7.109050
[...]
      3          6           0        2.348727   -0.154538    0.048016
      4          6           0        2.748339    1.154090   -0.200931
      5          6           0        1.764213    2.121340   -0.394274
      6          6           0        0.415081    1.784489   -0.339602
      7          6           0       -1.421950    0.095041   -0.031172
      8          6           0       -1.884009   -1.094461   -0.613100
      9          6           0       -3.232236   -1.438205   -0.560771
     10          6           0       -4.146312   -0.600166    0.075688
     11          6           0       -3.700686    0.584976    0.658644
     12          6           0       -2.352613    0.929214    0.605347
     13          1           0        0.732569   -1.532506    0.329489
     14          1           0        3.799784    1.406867   -0.242786
     15          1           0        2.057181    3.144863   -0.598858
     16          1           0       -0.335663    2.545114   -0.517644
     17          1           0       -1.186270   -1.742367   -1.131602
     18          1           0       -3.570043   -2.357990   -1.025099
     19          1           0       -5.195900   -0.868124    0.117037
     20          1           0       -4.402264    1.239275    1.164069
     21          1           0       -2.013565    1.841455    1.083044
     22         17           0        3.573281   -1.393849    0.306921
 ---------------------------------------------------------------------
 Rotational constants (GHZ):           1.6521460           0.3612281           0.3075575

 **********************************************************************

            Population analysis using the SCF Density.

 **********************************************************************

 Orbital symmetries:
       Occupied  (A) (A) (A) (A) (A) (A) (A) (A) (A) (A) (A) (A)
                 (A) (A) (A) (A) (A) (A) (A) (A) (A) (A) (A) (A)
                 (A) (A) (A) (A) (A) (A) (A) (A) (A) (A) (A) (A)
                 (A) (A) (A) (A) (A) (A) (A) (A) (A) (A) (A) (A)
                 (A)
       Virtual   (A) (A) (A) (A) (A) (A) (A) (A) (A) (A) (A) (A)
                 (A) (A) (A) (A) (A) (A) (A) (A) (A) (A) (A) (A)
                 (A) (A) (A) (A) (A) (A) (A) (A) (A) (A) (A) (A)
                 (A) (A) (A) (A) (A) (A) (A) (A) (A) (A) (A) (A)
                 (A) (A) (A) (A) (A) (A) (A) (A) (A) (A) (A) (A)
                 (A) (A) (A) (A) (A) (A) (A) (A) (A) (A) (A) (A)
                 (A) (A) (A) (A) (A) (A) (A) (A) (A) (A) (A) (A)
                 (A) (A) (A) (A) (A) (A) (A) (A) (A) (A) (A) (A)
                 (A) (A) (A) (A) (A) (A) (A) (A) (A) (A) (A) (A)
                 (A) (A) (A) (A) (A) (A) (A) (A) (A) (A) (A) (A)
                 (A) (A) (A) (A) (A) (A) (A) (A) (A) (A) (A) (A)
                 (A) (A) (A) (A) (A) (A) (A) (A) (A) (A) (A) (A)
                 (A) (A) (A) (A) (A) (A) (A) (A) (A) (A) (A) (A)
                 (A) (A) (A) (A) (A) (A) (A) (A) (A) (A) (A) (A)
                 (A) (A) (A) (A) (A) (A) (A) (A) (A) (A) (A) (A)
                 (A) (A) (A) (A) (A) (A) (A) (A) (A) (A) (A) (A)
                 (A) (A) (A) (A) (A) (A) (A) (A) (A) (A) (A) (A)
                 (A) (A) (A) (A) (A) (A) (A) (A) (A) (A) (A) (A)
                 (A) (A) (A) (A) (A) (A) (A) (A) (A) (A) (A) (A)
                 (A) (A) (A) (A) (A) (A) (A) (A) (A) (A) (A) (A)
                 (A) (A) (A) (A) (A) (A) (A) (A) (A) (A) (A) (A)
                 (A) (A) (A) (A) (A) (A) (A) (A) (A) (A) (A) (A)
                 (A) (A) (A) (A) (A) (A) (A) (A) (A) (A) (A) (A)
                 (A) (A) (A) (A) (A) (A) (A) (A) (A) (A) (A) (A)
                 (A) (A) (A) (A) (A) (A) (A) (A) (A) (A)
 The electronic state is 1-A.
 Alpha  occ. eigenvalues -- -101.55583 -10.24485 -10.20391 -10.19782 -10.19340
 Alpha  occ. eigenvalues --  -10.19303 -10.19283 -10.18841 -10.18570 -10.18557
 Alpha  occ. eigenvalues --  -10.18517 -10.18500 -10.18424  -9.47041  -7.23496
 Alpha  occ. eigenvalues --   -7.22526  -7.22493  -0.90196  -0.87370  -0.84462
 Alpha  occ. eigenvalues --   -0.79140  -0.76059  -0.74986  -0.73474  -0.64421
 Alpha  occ. eigenvalues --   -0.62957  -0.60665  -0.58912  -0.54303  -0.51521
 Alpha  occ. eigenvalues --   -0.48924  -0.48257  -0.45824  -0.45586  -0.44163
 Alpha  occ. eigenvalues --   -0.43775  -0.43273  -0.40569  -0.38764  -0.38202
 Alpha  occ. eigenvalues --   -0.37357  -0.35707  -0.35422  -0.34071  -0.31939
 Alpha  occ. eigenvalues --   -0.29033  -0.26721  -0.26074  -0.24381
 Alpha virt. eigenvalues --   -0.05065  -0.03076  -0.02495  -0.00352  -0.00091
 Alpha virt. eigenvalues --    0.00560   0.01381   0.01639   0.02756   0.03050
 Alpha virt. eigenvalues --    0.04145   0.04547   0.04987   0.05171   0.05604
 Alpha virt. eigenvalues --    0.06535   0.07332   0.07801   0.08509   0.09059
 Alpha virt. eigenvalues --    0.09450   0.10455   0.11032   0.11145   0.11560
 Alpha virt. eigenvalues --    0.11676   0.12092   0.13239   0.13488   0.13811
 Alpha virt. eigenvalues --    0.14069   0.14606   0.14923   0.15480   0.15712
 Alpha virt. eigenvalues --    0.16258   0.17100   0.17243   0.17986   0.18475
 Alpha virt. eigenvalues --    0.18686   0.19190   0.19761   0.19800   0.20115
 Alpha virt. eigenvalues --    0.20417   0.20628   0.21043   0.21749   0.22032
 Alpha virt. eigenvalues --    0.22365   0.22820   0.23341   0.23513   0.23973
 Alpha virt. eigenvalues --    0.24883   0.25587   0.25638   0.26299   0.26527
 Alpha virt. eigenvalues --    0.27282   0.27397   0.28762   0.28992   0.29228
 Alpha virt. eigenvalues --    0.29484   0.29676   0.30459   0.31102   0.31421
 Alpha virt. eigenvalues --    0.31826   0.32706   0.33505   0.35672   0.36364
 Alpha virt. eigenvalues --    0.37367   0.43787   0.45211   0.46168   0.46584
 Alpha virt. eigenvalues --    0.47292   0.50846   0.50908   0.51657   0.52417
 Alpha virt. eigenvalues --    0.52969   0.53806   0.53994   0.55005   0.55609
 Alpha virt. eigenvalues --    0.56651   0.57722   0.58385   0.58505   0.59396
 Alpha virt. eigenvalues --    0.60346   0.61035   0.61385   0.61636   0.63158
 Alpha virt. eigenvalues --    0.65069   0.65769   0.66319   0.67102   0.67498
 Alpha virt. eigenvalues --    0.67933   0.69414   0.69727   0.70126   0.70542
 Alpha virt. eigenvalues --    0.71109   0.71406   0.72094   0.74842   0.75925
 Alpha virt. eigenvalues --    0.77595   0.77886   0.79176   0.81365   0.81973
 Alpha virt. eigenvalues --    0.82510   0.82829   0.83452   0.84719   0.84921
 Alpha virt. eigenvalues --    0.85395   0.86493   0.87264   0.88625   0.89555
 Alpha virt. eigenvalues --    0.89879   0.90468   0.91536   0.92460   0.95123
 Alpha virt. eigenvalues --    0.95741   0.96354   0.98580   0.99689   1.00738
 Alpha virt. eigenvalues --    1.01954   1.02842   1.05211   1.06169   1.07848
 Alpha virt. eigenvalues --    1.08512   1.10595   1.11904   1.13024   1.13683
 Alpha virt. eigenvalues --    1.15137   1.20666   1.21183   1.28811   1.30373
 Alpha virt. eigenvalues --    1.31340   1.33347   1.36149   1.45291   1.47368
 Alpha virt. eigenvalues --    1.48627   1.49422   1.50060   1.51447   1.52176
 Alpha virt. eigenvalues --    1.53317   1.55737   1.56081   1.57074   1.57977
 Alpha virt. eigenvalues --    1.59230   1.60315   1.61995   1.65160   1.65647
 Alpha virt. eigenvalues --    1.66098   1.69463   1.70879   1.71603   1.73142
 Alpha virt. eigenvalues --    1.73865   1.74860   1.76980   1.77563   1.79638
 Alpha virt. eigenvalues --    1.82798   1.85562   1.89881   1.89968   1.91030
 Alpha virt. eigenvalues --    1.91334   1.92527   1.92895   1.93505   1.94428
 Alpha virt. eigenvalues --    1.96244   1.97058   1.97889   1.98644   2.00283
 Alpha virt. eigenvalues --    2.01374   2.01767   2.03596   2.04862   2.07673
 Alpha virt. eigenvalues --    2.08017   2.13587   2.20441   2.22167   2.25872
 Alpha virt. eigenvalues --    2.28431   2.29756   2.33256   2.34343   2.38187
 Alpha virt. eigenvalues --    2.38714   2.39061   2.39871   2.41615   2.42429
 Alpha virt. eigenvalues --    2.42753   2.49927   2.52619   2.54827   2.62601
 Alpha virt. eigenvalues --    2.64713   2.65843   2.66088   2.67003   2.67579
 Alpha virt. eigenvalues --    2.69061   2.69780   2.71501   2.72359   2.74150
 Alpha virt. eigenvalues --    2.75318   2.75521   2.77301   2.78405   2.79009
 Alpha virt. eigenvalues --    2.79865   2.80134   2.81802   2.83367   2.85685
 Alpha virt. eigenvalues --    2.86172   2.86876   2.89027   2.91670   2.92652
 Alpha virt. eigenvalues --    2.92790   2.98950   3.03670   3.07582   3.09646
 Alpha virt. eigenvalues --    3.16876   3.19157   3.19631   3.22182   3.34440
 Alpha virt. eigenvalues --    3.35640   3.36899   3.38444   3.48895   3.50626
 Alpha virt. eigenvalues --    3.51864   3.56863   3.62280   3.64195   3.75559
 Alpha virt. eigenvalues --    3.79755   3.97927   4.00774   4.03318   4.11289
 Alpha virt. eigenvalues --    4.13086   4.15440   4.16104   4.46181   4.81913
 Alpha virt. eigenvalues --    4.85022   9.78232  23.51930  23.68389  23.90749
 Alpha virt. eigenvalues --   23.93232  23.95153  23.96598  24.04633  24.06163
 Alpha virt. eigenvalues --   24.07884  24.09145  24.16418  24.18836  25.83406
 Alpha virt. eigenvalues --   26.13099  26.59477 215.77379
          Condensed to atoms (all electrons):
               1          2          3          4          5          6
     1  C   16.883751   3.352157  -2.864466  -1.976533  -0.409934  -4.569457
     2  C    3.352157  26.225527  -1.042755  -8.037217  -0.497321  -8.632797
     3  C   -2.864466  -1.042755  13.687079  -1.849857  -0.628277  -2.078539
     4  C   -1.976533  -8.037217  -1.849857  14.589110   0.650099   1.966948
     5  C   -0.409934  -0.497321  -0.628277   0.650099   7.285761  -0.750460
     6  C   -4.569457  -8.632797  -2.078539   1.966948  -0.750460  16.963391
     7  C   -3.970302  -6.554822   1.278362   1.080152   0.281515   2.378520
     8  C   -0.146607   2.491606  -0.483073  -0.331547   0.119384  -1.110453
     9  C    0.303237   0.087890   0.006803  -0.099884   0.018464  -0.011361
    10  C   -0.188144   0.056900  -0.027195   0.021680  -0.017980   0.035813
    11  C    0.205075  -0.229319   0.049430  -0.024332   0.054126   0.281516
    12  C   -1.144342  -1.213149   0.240329   0.437001  -0.224205   1.661404
    13  H   -0.023141   0.129693   0.070331   0.066362  -0.013822   0.026143
    14  H    0.041340  -0.005452   0.072098   0.296836   0.003969  -0.059815
    15  H   -0.001418  -0.060699  -0.005589  -0.001173   0.386101   0.012319
    16  H   -0.016039  -0.012841   0.008989  -0.007413   0.001669   0.342321
    17  H    0.027444   0.100490  -0.017865  -0.002102  -0.000908  -0.032515
    18  H    0.005005   0.005214  -0.000930   0.000137  -0.000438  -0.001890
    19  H    0.005971  -0.000180  -0.000100  -0.000014   0.000014  -0.001135
    20  H    0.011151   0.000642  -0.000902   0.000113   0.000109  -0.000459
    21  H   -0.014447  -0.020372  -0.010721   0.005336  -0.001114   0.067734
    22  Cl  -0.271729   0.809504  -1.128268  -0.140925   0.123522   0.036569
               7          8          9         10         11         12
     1  C   -3.970302  -0.146607   0.303237  -0.188144   0.205075  -1.144342
     2  C   -6.554822   2.491606   0.087890   0.056900  -0.229319  -1.213149
     3  C    1.278362  -0.483073   0.006803  -0.027195   0.049430   0.240329
     4  C    1.080152  -0.331547  -0.099884   0.021680  -0.024332   0.437001
     5  C    0.281515   0.119384   0.018464  -0.017980   0.054126  -0.224205
     6  C    2.378520  -1.110453  -0.011361   0.035813   0.281516   1.661404
     7  C   15.399824  -2.123899  -0.498238  -0.929301  -0.634590  -1.003639
     8  C   -2.123899  15.894942  -0.924907   0.597049  -1.248282  -6.429992
     9  C   -0.498238  -0.924907   7.173922   0.093161   0.595174  -0.816085
    10  C   -0.929301   0.597049   0.093161   5.696688   0.104271   0.394627
    11  C   -0.634590  -1.248282   0.595174   0.104271   6.802341  -0.058208
    12  C   -1.003639  -6.429992  -0.816085   0.394627  -0.058208  14.403378
    13  H    0.064385   0.058334  -0.002660   0.002286  -0.002832  -0.021895
    14  H    0.005590   0.000132   0.000127  -0.000024   0.000026  -0.001529
    15  H    0.017500  -0.001164  -0.000278   0.000066  -0.000060   0.000354
    16  H   -0.003476  -0.024566  -0.001677   0.001398  -0.001189   0.058745
    17  H   -0.057101   0.372508  -0.032385  -0.000812  -0.007903  -0.004614
    18  H    0.012395  -0.022439   0.367421  -0.002050  -0.012556  -0.001999
    19  H    0.035279  -0.050797   0.031083   0.352198   0.028897  -0.051050
    20  H    0.000236  -0.002248  -0.013817   0.006283   0.370801  -0.024157
    21  H   -0.019041  -0.011776  -0.007702   0.000926  -0.011563   0.367461
    22  Cl  -0.129080   0.011586   0.021129  -0.004062   0.006547  -0.024271
              13         14         15         16         17         18
     1  C   -0.023141   0.041340  -0.001418  -0.016039   0.027444   0.005005
     2  C    0.129693  -0.005452  -0.060699  -0.012841   0.100490   0.005214
     3  C    0.070331   0.072098  -0.005589   0.008989  -0.017865  -0.000930
     4  C    0.066362   0.296836  -0.001173  -0.007413  -0.002102   0.000137
     5  C   -0.013822   0.003969   0.386101   0.001669  -0.000908  -0.000438
     6  C    0.026143  -0.059815   0.012319   0.342321  -0.032515  -0.001890
     7  C    0.064385   0.005590   0.017500  -0.003476  -0.057101   0.012395
     8  C    0.058334   0.000132  -0.001164  -0.024566   0.372508  -0.022439
     9  C   -0.002660   0.000127  -0.000278  -0.001677  -0.032385   0.367421
    10  C    0.002286  -0.000024   0.000066   0.001398  -0.000812  -0.002050
    11  C   -0.002832   0.000026  -0.000060  -0.001189  -0.007903  -0.012556
    12  C   -0.021895  -0.001529   0.000354   0.058745  -0.004614  -0.001999
    13  H    0.513285  -0.000277   0.000070  -0.000189  -0.000395   0.000022
    14  H   -0.000277   0.514811  -0.007993  -0.000198   0.000002  -0.000000
    15  H    0.000070  -0.007993   0.535444  -0.007393   0.000000   0.000000
    16  H   -0.000189  -0.000198  -0.007393   0.533285  -0.000003   0.000001
    17  H   -0.000395   0.000002   0.000000  -0.000003   0.535235  -0.007606
    18  H    0.000022  -0.000000   0.000000   0.000001  -0.007606   0.539868
    19  H    0.000000   0.000000  -0.000000   0.000001  -0.000247  -0.007929
    20  H    0.000000  -0.000000   0.000000   0.000025   0.000078  -0.000266
    21  H    0.000009   0.000001   0.000038  -0.000219  -0.000264   0.000076
    22  Cl  -0.013053  -0.007500   0.000612   0.000423   0.000234  -0.000002
              19         20         21         22
     1  C    0.005971   0.011151  -0.014447  -0.271729
     2  C   -0.000180   0.000642  -0.020372   0.809504
     3  C   -0.000100  -0.000902  -0.010721  -1.128268
     4  C   -0.000014   0.000113   0.005336  -0.140925
     5  C    0.000014   0.000109  -0.001114   0.123522
     6  C   -0.001135  -0.000459   0.067734   0.036569
     7  C    0.035279   0.000236  -0.019041  -0.129080
     8  C   -0.050797  -0.002248  -0.011776   0.011586
     9  C    0.031083  -0.013817  -0.007702   0.021129
    10  C    0.352198   0.006283   0.000926  -0.004062
    11  C    0.028897   0.370801  -0.011563   0.006547
    12  C   -0.051050  -0.024157   0.367461  -0.024271
    13  H    0.000000   0.000000   0.000009  -0.013053
    14  H    0.000000  -0.000000   0.000001  -0.007500
    15  H   -0.000000   0.000000   0.000038   0.000612
    16  H    0.000001   0.000025  -0.000219   0.000423
    17  H   -0.000247   0.000078  -0.000264   0.000234
    18  H   -0.007929  -0.000266   0.000076  -0.000002
    19  H    0.538300  -0.007943  -0.000258   0.000001
    20  H   -0.007943   0.540572  -0.007769  -0.000001
    21  H   -0.000258  -0.007769   0.537924  -0.000106
    22  Cl   0.000001  -0.000001  -0.000106  17.331892
 Mulliken charges:
               1
     1  C    0.761427
     2  C   -0.952701
     3  C    0.725116
     4  C   -0.642775
     5  C   -0.380274
     6  C   -0.523795
     7  C    1.369730
     8  C   -0.633791
     9  C   -0.289418
    10  C   -0.193778
    11  C   -0.267371
    12  C   -0.544161
    13  H    0.147344
    14  H    0.147854
    15  H    0.133262
    16  H    0.128346
    17  H    0.128729
    18  H    0.127966
    19  H    0.127910
    20  H    0.127553
    21  H    0.125849
    22  Cl   0.376979
 Sum of Mulliken charges =  -0.00000
 Mulliken charges with hydrogens summed into heavy atoms:
               1
     1  C    0.761427
     2  C   -0.805358
     3  C    0.725116
     4  C   -0.494920
     5  C   -0.247012
     6  C   -0.395449
     7  C    1.369730
     8  C   -0.505062
     9  C   -0.161452
    10  C   -0.065869
    11  C   -0.139818
    12  C   -0.418312
    22  Cl   0.376979
 Electronic spatial extent (au):  <R**2>=           3367.0974
 Charge=             -0.0000 electrons
 Dipole moment (field-independent basis, Debye):
    X=             -1.5730    Y=              1.2184    Z=             -0.2615  Tot=              2.0068
 Quadrupole moment (field-independent basis, Debye-Ang):
   XX=            -79.8360   YY=            -76.5692   ZZ=            -87.0168
   XY=              4.9149   XZ=             -1.8812   YZ=              1.9579
 Traceless Quadrupole moment (field-independent basis, Debye-Ang):
   XX=              1.3047   YY=              4.5714   ZZ=             -5.8761
   XY=              4.9149   XZ=             -1.8812   YZ=              1.9579
 Octapole moment (field-independent basis, Debye-Ang**2):
  XXX=            -22.5355  YYY=              3.2816  ZZZ=              2.6750  XYY=              3.5404
  XXY=              9.0191  XXZ=              3.8148  XZZ=              5.6341  YZZ=             -3.6506
  YYZ=             -4.9462  XYZ=            -11.3497
 Hexadecapole moment (field-independent basis, Debye-Ang**3):
 XXXX=          -3428.4807 YYYY=           -790.4719 ZZZZ=           -200.4491 XXXY=             53.2764
 XXXZ=            -38.7216 YYYX=             -0.8455 YYYZ=             -0.9545 ZZZX=              6.0767
 ZZZY=              4.3092 XXYY=           -701.7857 XXZZ=           -668.8267 YYZZ=           -173.0859
 XXYZ=             24.9544 YYXZ=              2.3574 ZZXY=            -14.7806
 N-N= 7.627400896738D+02 E-N=-3.692521481256D+03  KE= 9.198452282245D+02
 1\1\GINC-DAMODAR\FOpt\RB3LYP\6-311+G(d,p)\C12H9Cl1\PKC\14-Mar-2022\0\\
 # opt b3lyp/6-311+g(d,p) scf=xqc\\Title Card Required\\0,1\C,-0.344715
 8755,-1.5925531769,-0.012614321\C,1.057243923,-1.5868484328,-0.0461514
 496\C,1.7456741364,-0.3801362369,-0.061545307\C,1.0804219769,0.8410148
 358,-0.0414683209\C,-0.3124897956,0.8355229579,-0.0064746638\C,-1.0191
 015647,-0.3632743081,0.007681003\C,-1.0913297164,-2.8769888543,-0.0006
 765399\C,-0.6885779363,-3.9516080457,-0.8069261356\C,-1.3901678165,-5.
 1542206742,-0.796517991\C,-2.5084314153,-5.3076714559,0.0213232379\C,-
 2.9195523049,-4.2478785387,0.82804477\C,-2.2185709968,-3.0449076628,0.
 8167976497\H,1.6088214925,-2.5180390346,-0.0364226371\H,1.6379871597,1
 .7684589767,-0.0537944054\H,-0.8481936676,1.7780006181,0.0000223389\H,
 -2.1024398042,-0.3477421321,0.0092458842\H,0.1653475885,-3.8358791785,
 -1.4648655473\H,-1.0673931916,-5.969452852,-1.4344295158\H,-3.05426944
 7,-6.2442244769,0.0299485374\H,-3.7827436236,-4.3602070754,1.474618712
 4\H,-2.5330631249,-2.2357548803,1.4661814027\Cl,3.5066256527,-0.400415
 4518,-0.0946169853\\Version=EM64L-G16RevB.01\State=1-A\HF=-923.0456214
 \RMSD=7.244e-09\RMSF=9.379e-06\Dipole=-0.783682,-0.0950036,0.0134262\Q
 uadrupole=-2.218675,5.6266486,-3.4079735,-0.8058658,-2.5038788,1.48328
 93\PG=C01 [X(C12H9Cl1)]\\@


 The hours that make us happy make us wise.
                         -- John Masefield
 Job cpu time:       0 days  5 hours 39 minutes 50.2 seconds.
 Elapsed time:       0 days  2 hours  8 minutes 44.2 seconds.
 File lengths (MBytes):  RWF=     78 Int=      0 D2E=      0 Chk=     12 Scr=      1
 Normal termination of Gaussian 16 at Mon Mar 14 19:17:24 2022.
