 Entering Gaussian System, Link 0=g16
 Input=4,4prime-Dichlorobiphenyl.gjf
 Output=4,4prime-Dichlorobiphenyl.log
 Initial command:
 /usr/local/g16/l1.exe "/scratch/pkc/Gau-3764.inp" -scrdir="/scratch/pkc/"
 Entering Link 1 = /usr/local/g16/l1.exe PID=      3765.
  
 Copyright (c) 1988-2017, Gaussian, Inc.  All Rights Reserved.
  
 This is part of the Gaussian(R) 16 program.  It is based on
 the Gaussian(R) 09 system (copyright 2009, Gaussian, Inc.),
 the Gaussian(R) 03 system (copyright 2003, Gaussian, Inc.),
 the Gaussian(R) 98 system (copyright 1998, Gaussian, Inc.),
 the Gaussian(R) 94 system (copyright 1995, Gaussian, Inc.),
 the Gaussian 92(TM) system (copyright 1992, Gaussian, Inc.),
 the Gaussian 90(TM) system (copyright 1990, Gaussian, Inc.),
 the Gaussian 88(TM) system (copyright 1988, Gaussian, Inc.),
 the Gaussian 86(TM) system (copyright 1986, Carnegie Mellon
 University), and the Gaussian 82(TM) system (copyright 1983,
 Carnegie Mellon University). Gaussian is a federally registered
 trademark of Gaussian, Inc.
  
 This software contains proprietary and confidential information,
 including trade secrets, belonging to Gaussian, Inc.
  
 This software is provided under written license and may be
 used, copied, transmitted, or stored only in accord with that
 written license.
  
 The following legend is applicable only to US Government
 contracts under FAR:
  
                    RESTRICTED RIGHTS LEGEND
  
 Use, reproduction and disclosure by the US Government is
 subject to restrictions as set forth in subparagraphs (a)
 and (c) of the Commercial Computer Software - Restricted
 Rights clause in FAR 52.227-19.
  
 Gaussian, Inc.
 340 Quinnipiac St., Bldg. 40, Wallingford CT 06492
  
  
 ---------------------------------------------------------------
 Warning -- This program may not be used in any manner that
 competes with the business of Gaussian, Inc. or will provide
 assistance to any competitor of Gaussian, Inc.  The licensee
 of this program is prohibited from giving any competitor of
 Gaussian, Inc. access to this program.  By using this program,
 the user acknowledges that Gaussian, Inc. is engaged in the
 business of creating and licensing software in the field of
 computational chemistry and represents and warrants to the
 licensee that it is not a competitor of Gaussian, Inc. and that
 it will not use this program in any manner prohibited above.
 ---------------------------------------------------------------
  

 Cite this work as:
 Gaussian 16, Revision B.01,
 M. J. Frisch, G. W. Trucks, H. B. Schlegel, G. E. Scuseria, 
 M. A. Robb, J. R. Cheeseman, G. Scalmani, V. Barone, 
 G. A. Petersson, H. Nakatsuji, X. Li, M. Caricato, A. V. Marenich, 
 J. Bloino, B. G. Janesko, R. Gomperts, B. Mennucci, H. P. Hratchian, 
 J. V. Ortiz, A. F. Izmaylov, J. L. Sonnenberg, D. Williams-Young, 
 F. Ding, F. Lipparini, F. Egidi, J. Goings, B. Peng, A. Petrone, 
 T. Henderson, D. Ranasinghe, V. G. Zakrzewski, J. Gao, N. Rega, 
 G. Zheng, W. Liang, M. Hada, M. Ehara, K. Toyota, R. Fukuda, 
 J. Hasegawa, M. Ishida, T. Nakajima, Y. Honda, O. Kitao, H. Nakai, 
 T. Vreven, K. Throssell, J. A. Montgomery, Jr., J. E. Peralta, 
 F. Ogliaro, M. J. Bearpark, J. J. Heyd, E. N. Brothers, K. N. Kudin, 
 V. N. Staroverov, T. A. Keith, R. Kobayashi, J. Normand, 
 K. Raghavachari, A. P. Rendell, J. C. Burant, S. S. Iyengar, 
 J. Tomasi, M. Cossi, J. M. Millam, M. Klene, C. Adamo, R. Cammi, 
 J. W. Ochterski, R. L. Martin, K. Morokuma, O. Farkas, 
 J. B. Foresman, and D. J. Fox, Gaussian, Inc., Wallingford CT, 2016.
 
 ******************************************
 Gaussian 16:  EM64L-G16RevB.01 20-Dec-2017
                14-Mar-2022 
 ******************************************
 %mem=10GB
 %nprocshared=4
 Will use up to    4 processors via shared memory.
 --------------------------------
 # opt b3lyp/6-311+g(d,p) scf=xqc
 --------------------------------
 1/18=20,19=15,26=3,38=1/1,3;
 2/9=110,12=2,17=6,18=5,40=1/2;
 3/5=4,6=6,7=111,11=2,25=1,30=1,71=1,74=-5/1,2,3;
 4//1;
 5/5=2,8=3,13=1,38=5/2,8;
 6/7=2,8=2,9=2,10=2,28=1/1;
 7//1,2,3,16;
 1/18=20,19=15,26=3/3(2);
 2/9=110/2;
 99//99;
 2/9=110/2;
 3/5=4,6=6,7=111,11=2,25=1,30=1,71=1,74=-5/1,2,3;
 4/5=5,16=3,69=1/1;
 5/5=2,8=3,13=1,38=5/2,8;
 7//1,2,3,16;
 1/18=20,19=15,26=3/3(-5);
 2/9=110/2;
 6/7=2,8=2,9=2,10=2,19=2,28=1/1;
 99/9=1/99;
 -------------------
 Title Card Required
 -------------------
 Symbolic Z-matrix:
 Charge =  0 Multiplicity = 1
 C                    -4.19951  -1.96487  -0.06507 
 C                    -2.86713  -1.93498  -0.49841 
 C                    -2.15923  -0.72553  -0.50448 
 C                    -2.78372   0.45404  -0.07721 
 C                    -4.1161    0.42415   0.35613 
 C                    -4.824    -0.7853    0.36221 
 C                    -4.97741  -3.29393  -0.05839 
 C                    -4.35293  -4.4735   -0.48567 
 C                    -5.06082  -5.68295  -0.47959 
 C                    -6.3932   -5.71284  -0.04624 
 C                    -7.01769  -4.53327   0.38103 
 C                    -6.30979  -3.32382   0.37496 
 H                    -2.39032  -2.8356   -0.82464 
 H                    -1.14193  -0.70271  -0.83535 
 H                    -4.59291   1.32478   0.68237 
 H                    -5.8413   -0.80812   0.69308 
 H                    -3.33562  -4.45068  -0.81654 
 H                    -4.58401  -6.58357  -0.80583 
 H                    -8.03499  -4.55609   0.71191 
 H                    -6.7866   -2.4232    0.70119 
 Cl                   -1.89469   1.97297  -0.08484 
 Cl                   -7.28223  -7.23177  -0.03861 
 

 GradGradGradGradGradGradGradGradGradGradGradGradGradGradGradGradGradGrad
 Berny optimization.
 Initialization pass.
                           ----------------------------
                           !    Initial Parameters    !
                           ! (Angstroms and Degrees)  !
 --------------------------                            --------------------------
 ! Name  Definition              Value          Derivative Info.                !
 --------------------------------------------------------------------------------
 ! R1    R(1,2)                  1.4014         estimate D2E/DX2                !
 ! R2    R(1,6)                  1.4014         estimate D2E/DX2                !
 ! R3    R(1,7)                  1.54           estimate D2E/DX2                !
 ! R4    R(2,3)                  1.4014         estimate D2E/DX2                !
 ! R5    R(2,13)                 1.07           estimate D2E/DX2                !
 ! R6    R(3,4)                  1.4014         estimate D2E/DX2                !
 ! R7    R(3,14)                 1.07           estimate D2E/DX2                !
 ! R8    R(4,5)                  1.4014         estimate D2E/DX2                !
 ! R9    R(4,21)                 1.76           estimate D2E/DX2                !
 ! R10   R(5,6)                  1.4014         estimate D2E/DX2                !
 ! R11   R(5,15)                 1.07           estimate D2E/DX2                !
 ! R12   R(6,16)                 1.07           estimate D2E/DX2                !
 ! R13   R(7,8)                  1.4014         estimate D2E/DX2                !
 ! R14   R(7,12)                 1.4014         estimate D2E/DX2                !
 ! R15   R(8,9)                  1.4014         estimate D2E/DX2                !
 ! R16   R(8,17)                 1.07           estimate D2E/DX2                !
 ! R17   R(9,10)                 1.4014         estimate D2E/DX2                !
 ! R18   R(9,18)                 1.07           estimate D2E/DX2                !
 ! R19   R(10,11)                1.4014         estimate D2E/DX2                !
 ! R20   R(10,22)                1.76           estimate D2E/DX2                !
 ! R21   R(11,12)                1.4014         estimate D2E/DX2                !
 ! R22   R(11,19)                1.07           estimate D2E/DX2                !
 ! R23   R(12,20)                1.07           estimate D2E/DX2                !
 ! A1    A(2,1,6)              120.0            estimate D2E/DX2                !
 ! A2    A(2,1,7)              120.0            estimate D2E/DX2                !
 ! A3    A(6,1,7)              120.0            estimate D2E/DX2                !
 ! A4    A(1,2,3)              120.0            estimate D2E/DX2                !
 ! A5    A(1,2,13)             120.0            estimate D2E/DX2                !
 ! A6    A(3,2,13)             120.0            estimate D2E/DX2                !
 ! A7    A(2,3,4)              120.0            estimate D2E/DX2                !
 ! A8    A(2,3,14)             120.0            estimate D2E/DX2                !
 ! A9    A(4,3,14)             120.0            estimate D2E/DX2                !
 ! A10   A(3,4,5)              120.0            estimate D2E/DX2                !
 ! A11   A(3,4,21)             120.0            estimate D2E/DX2                !
 ! A12   A(5,4,21)             120.0            estimate D2E/DX2                !
 ! A13   A(4,5,6)              120.0            estimate D2E/DX2                !
 ! A14   A(4,5,15)             120.0            estimate D2E/DX2                !
 ! A15   A(6,5,15)             120.0            estimate D2E/DX2                !
 ! A16   A(1,6,5)              120.0            estimate D2E/DX2                !
 ! A17   A(1,6,16)             120.0            estimate D2E/DX2                !
 ! A18   A(5,6,16)             120.0            estimate D2E/DX2                !
 ! A19   A(1,7,8)              120.0            estimate D2E/DX2                !
 ! A20   A(1,7,12)             120.0            estimate D2E/DX2                !
 ! A21   A(8,7,12)             120.0            estimate D2E/DX2                !
 ! A22   A(7,8,9)              120.0            estimate D2E/DX2                !
 ! A23   A(7,8,17)             120.0            estimate D2E/DX2                !
 ! A24   A(9,8,17)             120.0            estimate D2E/DX2                !
 ! A25   A(8,9,10)             120.0            estimate D2E/DX2                !
 ! A26   A(8,9,18)             120.0            estimate D2E/DX2                !
 ! A27   A(10,9,18)            120.0            estimate D2E/DX2                !
 ! A28   A(9,10,11)            120.0            estimate D2E/DX2                !
 ! A29   A(9,10,22)            120.0            estimate D2E/DX2                !
 ! A30   A(11,10,22)           120.0            estimate D2E/DX2                !
 ! A31   A(10,11,12)           120.0            estimate D2E/DX2                !
 ! A32   A(10,11,19)           120.0            estimate D2E/DX2                !
 ! A33   A(12,11,19)           120.0            estimate D2E/DX2                !
 ! A34   A(7,12,11)            120.0            estimate D2E/DX2                !
 ! A35   A(7,12,20)            120.0            estimate D2E/DX2                !
 ! A36   A(11,12,20)           120.0            estimate D2E/DX2                !
 ! D1    D(6,1,2,3)              0.0001         estimate D2E/DX2                !
 ! D2    D(6,1,2,13)           180.0            estimate D2E/DX2                !
 ! D3    D(7,1,2,3)           -180.0            estimate D2E/DX2                !
 ! D4    D(7,1,2,13)            -0.0001         estimate D2E/DX2                !
 ! D5    D(2,1,6,5)             -0.0001         estimate D2E/DX2                !
 ! D6    D(2,1,6,16)           180.0            estimate D2E/DX2                !
 ! D7    D(7,1,6,5)            180.0            estimate D2E/DX2                !
 ! D8    D(7,1,6,16)             0.0            estimate D2E/DX2                !
 ! D9    D(2,1,7,8)             -0.0001         estimate D2E/DX2                !
 ! D10   D(2,1,7,12)           179.9998         estimate D2E/DX2                !
 ! D11   D(6,1,7,8)            179.9999         estimate D2E/DX2                !
 ! D12   D(6,1,7,12)            -0.0002         estimate D2E/DX2                !
 ! D13   D(1,2,3,4)              0.0            estimate D2E/DX2                !
 ! D14   D(1,2,3,14)           180.0            estimate D2E/DX2                !
 ! D15   D(13,2,3,4)          -179.9999         estimate D2E/DX2                !
 ! D16   D(13,2,3,14)            0.0001         estimate D2E/DX2                !
 ! D17   D(2,3,4,5)             -0.0001         estimate D2E/DX2                !
 ! D18   D(2,3,4,21)           180.0            estimate D2E/DX2                !
 ! D19   D(14,3,4,5)           179.9999         estimate D2E/DX2                !
 ! D20   D(14,3,4,21)            0.0            estimate D2E/DX2                !
 ! D21   D(3,4,5,6)              0.0001         estimate D2E/DX2                !
 ! D22   D(3,4,5,15)          -179.9999         estimate D2E/DX2                !
 ! D23   D(21,4,5,6)          -180.0            estimate D2E/DX2                !
 ! D24   D(21,4,5,15)            0.0            estimate D2E/DX2                !
 ! D25   D(4,5,6,1)              0.0            estimate D2E/DX2                !
 ! D26   D(4,5,6,16)           179.9999         estimate D2E/DX2                !
 ! D27   D(15,5,6,1)           180.0            estimate D2E/DX2                !
 ! D28   D(15,5,6,16)           -0.0001         estimate D2E/DX2                !
 ! D29   D(1,7,8,9)            179.9999         estimate D2E/DX2                !
 ! D30   D(1,7,8,17)             0.0001         estimate D2E/DX2                !
 ! D31   D(12,7,8,9)             0.0001         estimate D2E/DX2                !
 ! D32   D(12,7,8,17)         -179.9998         estimate D2E/DX2                !
 ! D33   D(1,7,12,11)         -179.9999         estimate D2E/DX2                !
 ! D34   D(1,7,12,20)            0.0            estimate D2E/DX2                !
 ! D35   D(8,7,12,11)           -0.0001         estimate D2E/DX2                !
 ! D36   D(8,7,12,20)          179.9999         estimate D2E/DX2                !
 ! D37   D(7,8,9,10)             0.0            estimate D2E/DX2                !
 ! D38   D(7,8,9,18)           180.0            estimate D2E/DX2                !
 ! D39   D(17,8,9,10)          179.9998         estimate D2E/DX2                !
 ! D40   D(17,8,9,18)           -0.0002         estimate D2E/DX2                !
 ! D41   D(8,9,10,11)            0.0            estimate D2E/DX2                !
 ! D42   D(8,9,10,22)         -179.9999         estimate D2E/DX2                !
 ! D43   D(18,9,10,11)         180.0            estimate D2E/DX2                !
 ! D44   D(18,9,10,22)           0.0001         estimate D2E/DX2                !
 ! D45   D(9,10,11,12)           0.0            estimate D2E/DX2                !
 ! D46   D(9,10,11,19)        -179.9998         estimate D2E/DX2                !
 ! D47   D(22,10,11,12)        179.9999         estimate D2E/DX2                !
 ! D48   D(22,10,11,19)          0.0001         estimate D2E/DX2                !
 ! D49   D(10,11,12,7)           0.0            estimate D2E/DX2                !
 ! D50   D(10,11,12,20)       -179.9999         estimate D2E/DX2                !
 ! D51   D(19,11,12,7)         179.9999         estimate D2E/DX2                !
 ! D52   D(19,11,12,20)         -0.0001         estimate D2E/DX2                !
 --------------------------------------------------------------------------------
 Trust Radius=3.00D-01 FncErr=1.00D-07 GrdErr=1.00D-06 EigMax=2.50D+02 EigMin=1.00D-04
 Number of steps in this run=    121 maximum allowed number of steps=    132.
 GradGradGradGradGradGradGradGradGradGradGradGradGradGradGradGradGradGrad

                          Input orientation:                          
 ---------------------------------------------------------------------
 Center     Atomic      Atomic             Coordinates (Angstroms)
 Number     Number       Type             X           Y           Z
 ---------------------------------------------------------------------
      1          6           0       -4.199510   -1.964865   -0.065066
      2          6           0       -2.867128   -1.934979   -0.498412
      3          6           0       -2.159235   -0.725528   -0.504485
      4          6           0       -2.783722    0.454037   -0.077210
      5          6           0       -4.116104    0.424151    0.356135
      6          6           0       -4.823998   -0.785300    0.362207
      7          6           0       -4.977414   -3.293933   -0.058392
      8          6           0       -4.352927   -4.473498   -0.485667
      9          6           0       -5.060820   -5.682949   -0.479592
     10          6           0       -6.393200   -5.712835   -0.046243
     11          6           0       -7.017687   -4.533270    0.381033
     12          6           0       -6.309794   -3.323819    0.374958
     13          1           0       -2.390318   -2.835604   -0.824644
     14          1           0       -1.141932   -0.702710   -0.835354
     15          1           0       -4.592915    1.324776    0.682366
     16          1           0       -5.841300   -0.808118    0.693077
     17          1           0       -3.335624   -4.450679   -0.816536
     18          1           0       -4.584010   -6.583573   -0.805827
     19          1           0       -8.034988   -4.556090    0.711907
     20          1           0       -6.786604   -2.423195    0.701194
     21         17           0       -1.894688    1.972970   -0.084836
     22         17           0       -7.282233   -7.231770   -0.038611
 ---------------------------------------------------------------------
                    Distance matrix (angstroms):
                    1          2          3          4          5
     1  C    0.000000
     2  C    1.401400   0.000000
     3  C    2.427296   1.401400   0.000000
     4  C    2.802800   2.427296   1.401400   0.000000
     5  C    2.427296   2.802800   2.427296   1.401400   0.000000
     6  C    1.401400   2.427296   2.802800   2.427296   1.401400
     7  C    1.540000   2.548270   3.838989   4.342800   3.838989
     8  C    2.548270   2.941400   4.342800   5.187469   4.975106
     9  C    3.838989   4.342800   5.744200   6.558176   6.235992
    10  C    4.342800   5.187469   6.558176   7.145600   6.558176
    11  C    3.838989   4.975106   6.235992   6.558176   5.744200
    12  C    2.548270   3.813607   4.975106   5.187469   4.342800
    13  H    2.146700   1.070000   2.146700   3.396345   3.872800
    14  H    3.396345   2.146700   1.070000   2.146700   3.396345
    15  H    3.396345   3.872800   3.396345   2.146700   1.070000
    16  H    2.146700   3.396345   3.872800   3.396345   2.146700
    17  H    2.736837   2.578650   3.918930   4.990735   5.074276
    18  H    4.693509   4.965039   6.347206   7.300676   7.118798
    19  H    4.693509   5.919617   7.118798   7.300676   6.347206
    20  H    2.736837   4.127917   5.074276   4.990735   3.918930
    21  Cl   4.562800   4.048303   2.743718   1.760000   2.743718
    22  Cl   6.102800   6.910901   8.294174   8.905600   8.294174
                    6          7          8          9         10
     6  C    0.000000
     7  C    2.548270   0.000000
     8  C    3.813607   1.401400   0.000000
     9  C    4.975106   2.427296   1.401400   0.000000
    10  C    5.187469   2.802800   2.427296   1.401400   0.000000
    11  C    4.342800   2.427296   2.802800   2.427296   1.401400
    12  C    2.941400   1.401400   2.427296   2.802800   2.427296
    13  H    3.396345   2.736837   2.578650   3.918930   4.990735
    14  H    3.872800   4.693509   4.965039   6.347206   7.300676
    15  H    2.146700   4.693509   5.919617   7.118798   7.300676
    16  H    1.070000   2.736837   4.127917   5.074276   4.990735
    17  H    4.127917   2.146700   1.070000   2.146700   3.396345
    18  H    5.919617   3.396345   2.146700   1.070000   2.146700
    19  H    4.965039   3.396345   3.872800   3.396345   2.146700
    20  H    2.578650   2.146700   3.396345   3.872800   3.396345
    21  Cl   4.048303   6.102800   6.910901   8.294174   8.905600
    22  Cl   6.910901   4.562800   4.048303   2.743718   1.760000
                   11         12         13         14         15
    11  C    0.000000
    12  C    1.401400   0.000000
    13  H    5.074276   4.127917   0.000000
    14  H    7.118798   5.919617   2.471400   0.000000
    15  H    6.347206   4.965039   4.942800   4.280590   0.000000
    16  H    3.918930   2.578650   4.280590   4.942800   2.471400
    17  H    3.872800   3.396345   1.871400   4.342800   6.097816
    18  H    3.396345   3.872800   4.342800   6.814200   8.047159
    19  H    1.070000   2.146700   6.097816   8.047159   6.814200
    20  H    2.146700   1.070000   4.671787   6.097816   4.342800
    21  Cl   8.294174   6.910901   4.890332   2.879094   2.879094
    22  Cl   2.743718   4.048303   6.623817   8.998151   8.998151
                   16         17         18         19         20
    16  H    0.000000
    17  H    4.671787   0.000000
    18  H    6.097816   2.471400   0.000000
    19  H    4.342800   4.942800   4.280590   0.000000
    20  H    1.871400   4.280590   4.942800   2.471400   0.000000
    21  Cl   4.890333   6.623817   8.998151   8.998151   6.623817
    22  Cl   6.623817   4.890332   2.879094   2.879094   4.890332
                   21         22
    21  Cl   0.000000
    22  Cl  10.665600   0.000000
 Stoichiometry    C12H8Cl2
 Framework group  C1[X(C12H8Cl2)]
 Deg. of freedom    60
 Full point group                 C1      NOp   1
 Largest Abelian subgroup         C1      NOp   1
 Largest concise Abelian subgroup C1      NOp   1
                         Standard orientation:                         
 ---------------------------------------------------------------------
 Center     Atomic      Atomic             Coordinates (Angstroms)
 Number     Number       Type             X           Y           Z
 ---------------------------------------------------------------------
      1          6           0       -0.770000    0.000000    0.000002
      2          6           0       -1.470700   -1.213648    0.000001
      3          6           0       -2.872100   -1.213648   -0.000000
      4          6           0       -3.572800    0.000000   -0.000001
      5          6           0       -2.872100    1.213648    0.000003
      6          6           0       -1.470700    1.213648    0.000004
      7          6           0        0.770000    0.000000    0.000003
      8          6           0        1.470700   -1.213648    0.000003
      9          6           0        2.872100   -1.213648    0.000002
     10          6           0        3.572800    0.000000    0.000001
     11          6           0        2.872100    1.213648   -0.000001
     12          6           0        1.470700    1.213648    0.000000
     13          1           0       -0.935700   -2.140295   -0.000001
     14          1           0       -3.407100   -2.140295   -0.000002
     15          1           0       -3.407100    2.140295    0.000004
     16          1           0       -0.935700    2.140295    0.000005
     17          1           0        0.935700   -2.140295    0.000002
     18          1           0        3.407100   -2.140295    0.000003
     19          1           0        3.407100    2.140295   -0.000005
     20          1           0        0.935700    2.140295   -0.000002
     21         17           0       -5.332800    0.000000   -0.000003
     22         17           0        5.332800    0.000000   -0.000003
 ---------------------------------------------------------------------
 Rotational constants (GHZ):           2.8338578           0.1767290           0.1663546
 Standard basis: 6-311+G(d,p) (5D, 7F)
 There are   386 symmetry adapted cartesian basis functions of A   symmetry.
 There are   372 symmetry adapted basis functions of A   symmetry.
   372 basis functions,   602 primitive gaussians,   386 cartesian basis functions
    57 alpha electrons       57 beta electrons
       nuclear repulsion energy       920.7139973545 Hartrees.
 NAtoms=   22 NActive=   22 NUniq=   22 SFac= 1.00D+00 NAtFMM=   60 NAOKFM=F Big=F
 Integral buffers will be    131072 words long.
 Raffenetti 2 integral format.
 Two-electron integral symmetry is turned on.
 One-electron integrals computed using PRISM.
 NBasis=   372 RedAO= T EigKep=  1.26D-06  NBF=   372
 NBsUse=   368 1.00D-06 EigRej=  9.01D-07 NBFU=   368
 ExpMin= 4.38D-02 ExpMax= 1.06D+05 ExpMxC= 3.62D+03 IAcc=3 IRadAn=         5 AccDes= 0.00D+00
 Harris functional with IExCor=  402 and IRadAn=       5 diagonalized for initial guess.
 HarFok:  IExCor=  402 AccDes= 0.00D+00 IRadAn=         5 IDoV= 1 UseB2=F ITyADJ=14
 ICtDFT=  3500011 ScaDFX=  1.000000  1.000000  1.000000  1.000000
 FoFCou: FMM=F IPFlag=           0 FMFlag=      100000 FMFlg1=           0
         NFxFlg=           0 DoJE=T BraDBF=F KetDBF=T FulRan=T
         wScrn=  0.000000 ICntrl=       500 IOpCl=  0 I1Cent=   200000004 NGrid=           0
         NMat0=    1 NMatS0=      1 NMatT0=    0 NMatD0=    1 NMtDS0=    0 NMtDT0=    0
 Petite list used in FoFCou.
 Requested convergence on RMS density matrix=1.00D-08 within  32 cycles.
 Requested convergence on MAX density matrix=1.00D-06.
 Requested convergence on             energy=1.00D-06.
 No special actions if energy rises.
 SCF Done:  E(RB3LYP) =  -1382.66031555     A.U. after   14 cycles
            NFock= 14  Conv=0.44D-08     -V/T= 2.0032
 QCSCF skips out because SCF is already converged.

 **********************************************************************

            Population analysis using the SCF Density.

 **********************************************************************

 Orbital symmetries:
       Occupied  (A) (A) (A) (A) (A) (A) (A) (A) (A) (A) (A) (A)
                 (A) (A) (A) (A) (A) (A) (A) (A) (A) (A) (A) (A)
                 (A) (A) (A) (A) (A) (A) (A) (A) (A) (A) (A) (A)
                 (A) (A) (A) (A) (A) (A) (A) (A) (A) (A) (A) (A)
                 (A) (A) (A) (A) (A) (A) (A) (A) (A)
       Virtual   (A) (A) (A) (A) (A) (A) (A) (A) (A) (A) (A) (A)
                 (A) (A) (A) (A) (A) (A) (A) (A) (A) (A) (A) (A)
                 (A) (A) (A) (A) (A) (A) (A) (A) (A) (A) (A) (A)
                 (A) (A) (A) (A) (A) (A) (A) (A) (A) (A) (A) (A)
                 (A) (A) (A) (A) (A) (A) (A) (A) (A) (A) (A) (A)
                 (A) (A) (A) (A) (A) (A) (A) (A) (A) (A) (A) (A)
                 (A) (A) (A) (A) (A) (A) (A) (A) (A) (A) (A) (A)
                 (A) (A) (A) (A) (A) (A) (A) (A) (A) (A) (A) (A)
                 (A) (A) (A) (A) (A) (A) (A) (A) (A) (A) (A) (A)
                 (A) (A) (A) (A) (A) (A) (A) (A) (A) (A) (A) (A)
                 (A) (A) (A) (A) (A) (A) (A) (A) (A) (A) (A) (A)
                 (A) (A) (A) (A) (A) (A) (A) (A) (A) (A) (A) (A)
                 (A) (A) (A) (A) (A) (A) (A) (A) (A) (A) (A) (A)
                 (A) (A) (A) (A) (A) (A) (A) (A) (A) (A) (A) (A)
                 (A) (A) (A) (A) (A) (A) (A) (A) (A) (A) (A) (A)
                 (A) (A) (A) (A) (A) (A) (A) (A) (A) (A) (A) (A)
                 (A) (A) (A) (A) (A) (A) (A) (A) (A) (A) (A) (A)
                 (A) (A) (A) (A) (A) (A) (A) (A) (A) (A) (A) (A)
                 (A) (A) (A) (A) (A) (A) (A) (A) (A) (A) (A) (A)
                 (A) (A) (A) (A) (A) (A) (A) (A) (A) (A) (A) (A)
                 (A) (A) (A) (A) (A) (A) (A) (A) (A) (A) (A) (A)
                 (A) (A) (A) (A) (A) (A) (A) (A) (A) (A) (A) (A)
                 (A) (A) (A) (A) (A) (A) (A) (A) (A) (A) (A) (A)
                 (A) (A) (A) (A) (A) (A) (A) (A) (A) (A) (A) (A)
                 (A) (A) (A) (A) (A) (A) (A) (A) (A) (A) (A) (A)
                 (A) (A) (A) (A) (A) (A) (A) (A) (A) (A) (A)
 The electronic state is 1-A.
 Alpha  occ. eigenvalues -- -101.56214-101.56214 -10.25130 -10.25130 -10.21046
 Alpha  occ. eigenvalues --  -10.21025 -10.20139 -10.20139 -10.20138 -10.20137
 Alpha  occ. eigenvalues --  -10.19877 -10.19876 -10.19875 -10.19875  -9.47653
 Alpha  occ. eigenvalues --   -9.47653  -7.24116  -7.24116  -7.23136  -7.23136
 Alpha  occ. eigenvalues --   -7.23103  -7.23103  -0.90645  -0.90023  -0.86424
 Alpha  occ. eigenvalues --   -0.84109  -0.77991  -0.77419  -0.76995  -0.72389
 Alpha  occ. eigenvalues --   -0.65621  -0.63148  -0.62240  -0.59825  -0.55452
 Alpha  occ. eigenvalues --   -0.50450  -0.50151  -0.50096  -0.46769  -0.46765
 Alpha  occ. eigenvalues --   -0.46181  -0.44489  -0.44024  -0.41752  -0.40378
 Alpha  occ. eigenvalues --   -0.40145  -0.39429  -0.36632  -0.36606  -0.36353
 Alpha  occ. eigenvalues --   -0.33630  -0.32554  -0.32372  -0.28299  -0.28259
 Alpha  occ. eigenvalues --   -0.27662  -0.23725
 Alpha virt. eigenvalues --   -0.06315  -0.05055  -0.02672  -0.00973  -0.00314
 Alpha virt. eigenvalues --    0.00696   0.00715   0.00725   0.01116   0.03053
 Alpha virt. eigenvalues --    0.03110   0.04002   0.04527   0.05378   0.05704
 Alpha virt. eigenvalues --    0.06489   0.06513   0.06556   0.07185   0.07795
 Alpha virt. eigenvalues --    0.08404   0.09503   0.09838   0.10316   0.10665
 Alpha virt. eigenvalues --    0.11260   0.11335   0.11375   0.13295   0.13478
 Alpha virt. eigenvalues --    0.14009   0.14129   0.14214   0.14277   0.14802
 Alpha virt. eigenvalues --    0.15121   0.15204   0.15347   0.15763   0.15973
 Alpha virt. eigenvalues --    0.17947   0.18407   0.18886   0.18891   0.19311
 Alpha virt. eigenvalues --    0.19649   0.20011   0.20065   0.20224   0.20238
 Alpha virt. eigenvalues --    0.20965   0.21401   0.21624   0.22278   0.22969
 Alpha virt. eigenvalues --    0.23628   0.24677   0.24769   0.25390   0.25857
 Alpha virt. eigenvalues --    0.26345   0.26609   0.26930   0.27751   0.28374
 Alpha virt. eigenvalues --    0.28403   0.29782   0.29869   0.32237   0.33652
 Alpha virt. eigenvalues --    0.34024   0.34258   0.34869   0.35469   0.36998
 Alpha virt. eigenvalues --    0.38881   0.39584   0.43526   0.43622   0.44140
 Alpha virt. eigenvalues --    0.45490   0.45954   0.46162   0.46557   0.48969
 Alpha virt. eigenvalues --    0.49010   0.50185   0.50465   0.51479   0.52807
 Alpha virt. eigenvalues --    0.53712   0.54058   0.54132   0.54498   0.54553
 Alpha virt. eigenvalues --    0.56435   0.57141   0.57926   0.58242   0.59760
 Alpha virt. eigenvalues --    0.60524   0.61316   0.62154   0.63094   0.63561
 Alpha virt. eigenvalues --    0.65621   0.65807   0.66242   0.67068   0.67572
 Alpha virt. eigenvalues --    0.67772   0.67945   0.69025   0.70112   0.72769
 Alpha virt. eigenvalues --    0.72859   0.74688   0.76808   0.78555   0.81380
 Alpha virt. eigenvalues --    0.82049   0.82505   0.82875   0.83578   0.83726
 Alpha virt. eigenvalues --    0.84456   0.85099   0.85569   0.85649   0.86059
 Alpha virt. eigenvalues --    0.87338   0.87492   0.88633   0.88791   0.89888
 Alpha virt. eigenvalues --    0.91987   0.92089   0.92795   0.93774   0.93905
 Alpha virt. eigenvalues --    0.95111   0.96017   0.96939   0.96947   0.97035
 Alpha virt. eigenvalues --    1.00058   1.03798   1.04142   1.04454   1.05413
 Alpha virt. eigenvalues --    1.05572   1.05650   1.08716   1.08818   1.09570
 Alpha virt. eigenvalues --    1.11904   1.12165   1.13479   1.16826   1.20556
 Alpha virt. eigenvalues --    1.24462   1.27523   1.28247   1.28625   1.29124
 Alpha virt. eigenvalues --    1.33242   1.35180   1.44589   1.44824   1.45932
 Alpha virt. eigenvalues --    1.47109   1.51100   1.52081   1.52827   1.54102
 Alpha virt. eigenvalues --    1.54744   1.55275   1.55281   1.56538   1.61135
 Alpha virt. eigenvalues --    1.61226   1.62681   1.64273   1.66009   1.69168
 Alpha virt. eigenvalues --    1.69266   1.70022   1.70209   1.71337   1.74731
 Alpha virt. eigenvalues --    1.77591   1.81885   1.82797   1.83747   1.84029
 Alpha virt. eigenvalues --    1.86942   1.89169   1.89271   1.90726   1.93127
 Alpha virt. eigenvalues --    1.93256   1.94041   1.95854   1.96548   1.98106
 Alpha virt. eigenvalues --    1.98629   1.99054   1.99283   2.02719   2.05393
 Alpha virt. eigenvalues --    2.07189   2.08039   2.09102   2.12295   2.15584
 Alpha virt. eigenvalues --    2.20976   2.25282   2.25642   2.26800   2.27091
 Alpha virt. eigenvalues --    2.28192   2.28439   2.33988   2.35543   2.36440
 Alpha virt. eigenvalues --    2.36895   2.41267   2.42830   2.43551   2.45413
 Alpha virt. eigenvalues --    2.52137   2.54942   2.58258   2.58589   2.61520
 Alpha virt. eigenvalues --    2.62117   2.62817   2.63857   2.64453   2.64746
 Alpha virt. eigenvalues --    2.68440   2.70285   2.70359   2.72461   2.73063
 Alpha virt. eigenvalues --    2.73985   2.74490   2.74619   2.75152   2.76915
 Alpha virt. eigenvalues --    2.79306   2.81501   2.82657   2.84512   2.84870
 Alpha virt. eigenvalues --    2.92175   2.92916   2.93159   2.93748   2.94389
 Alpha virt. eigenvalues --    3.04814   3.05901   3.06855   3.08256   3.15331
 Alpha virt. eigenvalues --    3.18775   3.19520   3.20410   3.31756   3.36953
 Alpha virt. eigenvalues --    3.38711   3.42141   3.46330   3.51380   3.54360
 Alpha virt. eigenvalues --    3.58668   3.63011   3.68305   3.79182   3.81250
 Alpha virt. eigenvalues --    3.98338   4.02158   4.12849   4.13165   4.17754
 Alpha virt. eigenvalues --    4.22122   4.47883   4.80065   4.83935   9.76815
 Alpha virt. eigenvalues --    9.77624  23.48854  23.63373  23.85384  23.87949
 Alpha virt. eigenvalues --   23.93464  23.95604  23.99478  24.02475  24.06146
 Alpha virt. eigenvalues --   24.07165  24.13917  24.14051  25.82160  25.82550
 Alpha virt. eigenvalues --   26.11154  26.13468  26.60339  26.60777 215.75838
 Alpha virt. eigenvalues --  215.76678
          Condensed to atoms (all electrons):
               1          2          3          4          5          6
     1  C    9.934353  -1.033041   0.754661  -3.171774   0.754661  -1.033041
     2  C   -1.033041  15.501865  -1.054674  -0.509601  -1.511039  -3.958123
     3  C    0.754661  -1.054674  13.871736  -0.581420  -3.986645  -1.511039
     4  C   -3.171774  -0.509601  -0.581420  13.220589  -0.581420  -0.509600
     5  C    0.754661  -1.511039  -3.986645  -0.581420  13.871736  -1.054675
     6  C   -1.033041  -3.958123  -1.511039  -0.509600  -1.054675  15.501866
     7  C    2.869192  -0.922977  -0.360570  -1.075691  -0.360570  -0.922977
     8  C   -0.922977   4.865031  -0.872172  -0.076385  -0.069696  -4.230203
     9  C   -0.360570  -0.872173   0.140773  -0.226716   0.162916  -0.069696
    10  C   -1.075691  -0.076385  -0.226716  -0.001054  -0.226716  -0.076385
    11  C   -0.360570  -0.069696   0.162916  -0.226716   0.140773  -0.872173
    12  C   -0.922977  -4.230203  -0.069696  -0.076385  -0.872173   4.865031
    13  H    0.044015   0.326784  -0.089471  -0.038118  -0.023790  -0.000049
    14  H    0.010368  -0.044198   0.269557   0.064793   0.052358  -0.005780
    15  H    0.010368  -0.005780   0.052358   0.064793   0.269557  -0.044198
    16  H    0.044015  -0.000049  -0.023790  -0.038118  -0.089471   0.326784
    17  H    0.050828   0.005021   0.013281   0.001024   0.001465   0.031595
    18  H   -0.001289   0.013441  -0.000465   0.000230  -0.000042  -0.002003
    19  H   -0.001289  -0.002003  -0.000042   0.000230  -0.000465   0.013441
    20  H    0.050828   0.031595   0.001465   0.001024   0.013281   0.005021
    21  Cl  -0.323037   0.191026   0.137652  -1.027476   0.137652   0.191026
    22  Cl  -0.058179  -0.026028  -0.006723  -0.000571  -0.006723  -0.026028
               7          8          9         10         11         12
     1  C    2.869192  -0.922977  -0.360570  -1.075691  -0.360570  -0.922977
     2  C   -0.922977   4.865031  -0.872173  -0.076385  -0.069696  -4.230203
     3  C   -0.360570  -0.872172   0.140773  -0.226716   0.162916  -0.069696
     4  C   -1.075691  -0.076385  -0.226716  -0.001054  -0.226716  -0.076385
     5  C   -0.360570  -0.069696   0.162916  -0.226716   0.140773  -0.872173
     6  C   -0.922977  -4.230203  -0.069696  -0.076385  -0.872173   4.865031
     7  C    9.934352  -1.033041   0.754661  -3.171773   0.754661  -1.033041
     8  C   -1.033041  15.501865  -1.054675  -0.509600  -1.511039  -3.958123
     9  C    0.754661  -1.054675  13.871735  -0.581420  -3.986644  -1.511039
    10  C   -3.171773  -0.509600  -0.581420  13.220588  -0.581420  -0.509600
    11  C    0.754661  -1.511039  -3.986644  -0.581420  13.871735  -1.054675
    12  C   -1.033041  -3.958123  -1.511039  -0.509600  -1.054675  15.501865
    13  H    0.050828   0.005021   0.013281   0.001024   0.001465   0.031595
    14  H   -0.001289   0.013441  -0.000465   0.000230  -0.000042  -0.002003
    15  H   -0.001289  -0.002003  -0.000042   0.000230  -0.000465   0.013441
    16  H    0.050828   0.031595   0.001465   0.001024   0.013281   0.005021
    17  H    0.044015   0.326784  -0.089471  -0.038118  -0.023790  -0.000049
    18  H    0.010368  -0.044198   0.269557   0.064793   0.052358  -0.005780
    19  H    0.010368  -0.005780   0.052358   0.064793   0.269557  -0.044198
    20  H    0.044015  -0.000049  -0.023790  -0.038118  -0.089471   0.326784
    21  Cl  -0.058179  -0.026028  -0.006723  -0.000571  -0.006723  -0.026028
    22  Cl  -0.323037   0.191026   0.137652  -1.027476   0.137652   0.191026
              13         14         15         16         17         18
     1  C    0.044015   0.010368   0.010368   0.044015   0.050828  -0.001289
     2  C    0.326784  -0.044198  -0.005780  -0.000049   0.005021   0.013441
     3  C   -0.089471   0.269557   0.052358  -0.023790   0.013281  -0.000465
     4  C   -0.038118   0.064793   0.064793  -0.038118   0.001024   0.000230
     5  C   -0.023790   0.052358   0.269557  -0.089471   0.001465  -0.000042
     6  C   -0.000049  -0.005780  -0.044198   0.326784   0.031595  -0.002003
     7  C    0.050828  -0.001289  -0.001289   0.050828   0.044015   0.010368
     8  C    0.005021   0.013441  -0.002003   0.031595   0.326784  -0.044198
     9  C    0.013281  -0.000465  -0.000042   0.001465  -0.089471   0.269557
    10  C    0.001024   0.000230   0.000230   0.001024  -0.038118   0.064793
    11  C    0.001465  -0.000042  -0.000465   0.013281  -0.023790   0.052358
    12  C    0.031595  -0.002003   0.013441   0.005021  -0.000049  -0.005780
    13  H    0.558873  -0.007997   0.000086  -0.000109   0.001238   0.000025
    14  H   -0.007997   0.516817  -0.000357   0.000086   0.000025   0.000000
    15  H    0.000086  -0.000357   0.516817  -0.007997   0.000001   0.000000
    16  H   -0.000109   0.000086  -0.007997   0.558873  -0.000109   0.000001
    17  H    0.001238   0.000025   0.000001  -0.000109   0.558873  -0.007997
    18  H    0.000025   0.000000   0.000000   0.000001  -0.007997   0.516817
    19  H    0.000001   0.000000   0.000000   0.000025   0.000086  -0.000357
    20  H   -0.000109   0.000001   0.000025   0.001238  -0.000109   0.000086
    21  Cl  -0.000321  -0.012445  -0.012445  -0.000321   0.000030  -0.000000
    22  Cl   0.000030  -0.000000  -0.000000   0.000030  -0.000321  -0.012445
              19         20         21         22
     1  C   -0.001289   0.050828  -0.323037  -0.058179
     2  C   -0.002003   0.031595   0.191026  -0.026028
     3  C   -0.000042   0.001465   0.137652  -0.006723
     4  C    0.000230   0.001024  -1.027476  -0.000571
     5  C   -0.000465   0.013281   0.137652  -0.006723
     6  C    0.013441   0.005021   0.191026  -0.026028
     7  C    0.010368   0.044015  -0.058179  -0.323037
     8  C   -0.005780  -0.000049  -0.026028   0.191026
     9  C    0.052358  -0.023790  -0.006723   0.137652
    10  C    0.064793  -0.038118  -0.000571  -1.027476
    11  C    0.269557  -0.089471  -0.006723   0.137652
    12  C   -0.044198   0.326784  -0.026028   0.191026
    13  H    0.000001  -0.000109  -0.000321   0.000030
    14  H    0.000000   0.000001  -0.012445  -0.000000
    15  H    0.000000   0.000025  -0.012445  -0.000000
    16  H    0.000025   0.001238  -0.000321   0.000030
    17  H    0.000086  -0.000109   0.000030  -0.000321
    18  H   -0.000357   0.000086  -0.000000  -0.012445
    19  H    0.516817  -0.007997  -0.000000  -0.012445
    20  H   -0.007997   0.558873   0.000030  -0.000321
    21  Cl  -0.000000   0.000030  17.438056  -0.000006
    22  Cl  -0.012445  -0.000321  -0.000006  17.438056
 Mulliken charges:
               1
     1  C    0.741148
     2  C   -0.618794
     3  C   -0.620976
     4  C    0.788363
     5  C   -0.620976
     6  C   -0.618794
     7  C    0.741148
     8  C   -0.618794
     9  C   -0.620976
    10  C    0.788363
    11  C   -0.620976
    12  C   -0.618794
    13  H    0.125698
    14  H    0.146900
    15  H    0.146900
    16  H    0.125698
    17  H    0.125698
    18  H    0.146900
    19  H    0.146900
    20  H    0.125698
    21  Cl   0.404833
    22  Cl   0.404833
 Sum of Mulliken charges =  -0.00000
 Mulliken charges with hydrogens summed into heavy atoms:
               1
     1  C    0.741148
     2  C   -0.493096
     3  C   -0.474076
     4  C    0.788363
     5  C   -0.474076
     6  C   -0.493096
     7  C    0.741148
     8  C   -0.493096
     9  C   -0.474076
    10  C    0.788363
    11  C   -0.474076
    12  C   -0.493096
    21  Cl   0.404833
    22  Cl   0.404833
 Electronic spatial extent (au):  <R**2>=           5699.9491
 Charge=             -0.0000 electrons
 Dipole moment (field-independent basis, Debye):
    X=              0.0000    Y=             -0.0000    Z=             -0.0000  Tot=              0.0000
 Quadrupole moment (field-independent basis, Debye-Ang):
   XX=           -112.2167   YY=            -83.2859   ZZ=           -101.1791
   XY=              0.0000   XZ=             -0.0000   YZ=              0.0000
 Traceless Quadrupole moment (field-independent basis, Debye-Ang):
   XX=            -13.3228   YY=             15.6080   ZZ=             -2.2852
   XY=              0.0000   XZ=             -0.0000   YZ=              0.0000
 Octapole moment (field-independent basis, Debye-Ang**2):
  XXX=              0.0000  YYY=             -0.0000  ZZZ=             -0.0001  XYY=             -0.0000
  XXY=             -0.0000  XXZ=             -0.0000  XZZ=              0.0000  YZZ=             -0.0000
  YYZ=             -0.0000  XYZ=             -0.0001
 Hexadecapole moment (field-independent basis, Debye-Ang**3):
 XXXX=          -7292.7165 YYYY=           -558.0459 ZZZZ=           -119.9181 XXXY=             -0.0000
 XXXZ=             -0.0002 YYYX=             -0.0000 YYYZ=              0.0000 ZZZX=             -0.0000
 ZZZY=              0.0000 XXYY=          -1182.3223 XXZZ=          -1214.5077 YYZZ=           -136.2727
 XXYZ=             -0.0000 YYXZ=             -0.0001 ZZXY=              0.0000
 N-N= 9.207139973545D+02 E-N=-5.100643573592D+03  KE= 1.378284154160D+03
 Calling FoFJK, ICntrl=      2127 FMM=F ISym2X=0 I1Cent= 0 IOpClX= 0 NMat=1 NMatS=1 NMatT=0.
 ***** Axes restored to original set *****
 -------------------------------------------------------------------
 Center     Atomic                   Forces (Hartrees/Bohr)
 Number     Number              X              Y              Z
 -------------------------------------------------------------------
      1        6          -0.016082582   -0.027477366    0.000137886
      2        6          -0.005846331    0.023135872    0.006271347
      3        6          -0.010894725   -0.001023526    0.003397214
      4        6          -0.006270544   -0.010713193    0.000053573
      5        6           0.004427718   -0.010025624   -0.003341574
      6        6           0.023007387    0.006184041   -0.006418421
      7        6           0.016082589    0.027477364   -0.000137852
      8        6          -0.023007327   -0.006184074    0.006418568
      9        6          -0.004427720    0.010025621    0.003341585
     10        6           0.006270486    0.010713236   -0.000053758
     11        6           0.010894804    0.001023486   -0.003397006
     12        6           0.005846325   -0.023135877   -0.006271345
     13        1           0.006472891   -0.003274384   -0.002747543
     14        1           0.008756898    0.000882625   -0.002719228
     15        1          -0.003506619    0.008087565    0.002674234
     16        1          -0.006012563    0.004060941    0.002743491
     17        1           0.006012505   -0.004060910   -0.002743654
     18        1           0.003506641   -0.008087576   -0.002674172
     19        1          -0.008756915   -0.000882617    0.002719193
     20        1          -0.006472901    0.003274391    0.002747506
     21       17          -0.001456974   -0.002489276    0.000012506
     22       17           0.001456957    0.002489281   -0.000012550
 -------------------------------------------------------------------
 Cartesian Forces:  Max     0.027477366 RMS     0.009448847

 GradGradGradGradGradGradGradGradGradGradGradGradGradGradGradGradGradGrad
 Berny optimization.
 FormGI is forming the generalized inverse of G from B-inverse, IUseBI=4.
 Internal  Forces:  Max     0.014660355 RMS     0.004732296
 Search for a local minimum.
 Step number   1 out of a maximum of  121
 All quantities printed in internal units (Hartrees-Bohrs-Radians)
 Mixed Optimization -- RFO/linear search
 Second derivative matrix not updated -- first step.
 ITU=  0
     Eigenvalues ---    0.00237   0.01506   0.01506   0.02070   0.02070
     Eigenvalues ---    0.02070   0.02070   0.02070   0.02070   0.02070
     Eigenvalues ---    0.02070   0.02070   0.02070   0.02070   0.02070
     Eigenvalues ---    0.02070   0.02070   0.02070   0.02070   0.16000
     Eigenvalues ---    0.16000   0.16000   0.16000   0.16000   0.16000
     Eigenvalues ---    0.16000   0.16000   0.22000   0.22000   0.22981
     Eigenvalues ---    0.22981   0.24000   0.24000   0.25000   0.25000
     Eigenvalues ---    0.25000   0.25000   0.28519   0.29539   0.29539
     Eigenvalues ---    0.37230   0.37230   0.37230   0.37230   0.37230
     Eigenvalues ---    0.37230   0.37230   0.37230   0.41268   0.41268
     Eigenvalues ---    0.41640   0.41640   0.45389   0.45389   0.45389
     Eigenvalues ---    0.45389   0.45389   0.45389   0.45389   0.45389
 RFO step:  Lambda=-7.94450726D-03 EMin= 2.36824243D-03
 Linear search not attempted -- first point.
 Iteration  1 RMS(Cart)=  0.02014242 RMS(Int)=  0.00028450
 Iteration  2 RMS(Cart)=  0.00035621 RMS(Int)=  0.00004622
 Iteration  3 RMS(Cart)=  0.00000006 RMS(Int)=  0.00004622
 Variable       Old X    -DE/DX   Delta X   Delta X   Delta X     New X
                                 (Linear)    (Quad)   (Total)
    R1        2.64826   0.00110   0.00000   0.00312   0.00319   2.65145
    R2        2.64826   0.00110   0.00000   0.00312   0.00319   2.65145
    R3        2.91018  -0.01466   0.00000  -0.05001  -0.05001   2.86017
    R4        2.64826  -0.00885   0.00000  -0.01917  -0.01917   2.62909
    R5        2.02201   0.00648   0.00000   0.01704   0.01704   2.03904
    R6        2.64826  -0.01106   0.00000  -0.02469  -0.02477   2.62350
    R7        2.02201   0.00919   0.00000   0.02416   0.02416   2.04616
    R8        2.64826  -0.01106   0.00000  -0.02469  -0.02477   2.62350
    R9        3.32592  -0.00288   0.00000  -0.00951  -0.00951   3.31641
   R10        2.64826  -0.00885   0.00000  -0.01917  -0.01917   2.62909
   R11        2.02201   0.00919   0.00000   0.02416   0.02416   2.04616
   R12        2.02201   0.00648   0.00000   0.01704   0.01704   2.03904
   R13        2.64826   0.00110   0.00000   0.00312   0.00319   2.65145
   R14        2.64826   0.00110   0.00000   0.00312   0.00319   2.65145
   R15        2.64826  -0.00885   0.00000  -0.01917  -0.01917   2.62909
   R16        2.02201   0.00648   0.00000   0.01704   0.01704   2.03904
   R17        2.64826  -0.01106   0.00000  -0.02469  -0.02477   2.62350
   R18        2.02201   0.00919   0.00000   0.02416   0.02416   2.04616
   R19        2.64826  -0.01106   0.00000  -0.02469  -0.02477   2.62350
   R20        3.32592  -0.00288   0.00000  -0.00951  -0.00951   3.31641
   R21        2.64826  -0.00885   0.00000  -0.01917  -0.01917   2.62909
   R22        2.02201   0.00919   0.00000   0.02416   0.02416   2.04616
   R23        2.02201   0.00648   0.00000   0.01704   0.01704   2.03904
    A1        2.09440  -0.01283   0.00000  -0.04777  -0.04762   2.04678
    A2        2.09440   0.00641   0.00000   0.02388   0.02381   2.11820
    A3        2.09440   0.00641   0.00000   0.02388   0.02381   2.11820
    A4        2.09440   0.00644   0.00000   0.02894   0.02901   2.12341
    A5        2.09440   0.00109   0.00000   0.01121   0.01118   2.10557
    A6        2.09440  -0.00753   0.00000  -0.04015  -0.04019   2.05421
    A7        2.09440  -0.00161   0.00000  -0.00948  -0.00955   2.08485
    A8        2.09440   0.00151   0.00000   0.00894   0.00898   2.10337
    A9        2.09440   0.00010   0.00000   0.00054   0.00057   2.09497
   A10        2.09440   0.00318   0.00000   0.00884   0.00869   2.10309
   A11        2.09440  -0.00159   0.00000  -0.00442  -0.00435   2.09005
   A12        2.09440  -0.00159   0.00000  -0.00442  -0.00435   2.09005
   A13        2.09440  -0.00161   0.00000  -0.00948  -0.00955   2.08485
   A14        2.09440   0.00010   0.00000   0.00054   0.00057   2.09497
   A15        2.09440   0.00151   0.00000   0.00894   0.00898   2.10337
   A16        2.09440   0.00644   0.00000   0.02894   0.02901   2.12341
   A17        2.09440   0.00109   0.00000   0.01121   0.01118   2.10557
   A18        2.09440  -0.00753   0.00000  -0.04015  -0.04019   2.05421
   A19        2.09440   0.00641   0.00000   0.02388   0.02381   2.11820
   A20        2.09440   0.00641   0.00000   0.02388   0.02381   2.11820
   A21        2.09440  -0.01283   0.00000  -0.04777  -0.04762   2.04678
   A22        2.09440   0.00644   0.00000   0.02894   0.02901   2.12341
   A23        2.09440   0.00109   0.00000   0.01121   0.01118   2.10557
   A24        2.09440  -0.00753   0.00000  -0.04015  -0.04019   2.05421
   A25        2.09440  -0.00161   0.00000  -0.00948  -0.00955   2.08485
   A26        2.09440   0.00151   0.00000   0.00894   0.00898   2.10337
   A27        2.09440   0.00010   0.00000   0.00054   0.00057   2.09497
   A28        2.09440   0.00318   0.00000   0.00884   0.00869   2.10309
   A29        2.09440  -0.00159   0.00000  -0.00442  -0.00435   2.09005
   A30        2.09440  -0.00159   0.00000  -0.00442  -0.00435   2.09005
   A31        2.09440  -0.00161   0.00000  -0.00948  -0.00955   2.08485
   A32        2.09440   0.00010   0.00000   0.00054   0.00057   2.09497
   A33        2.09440   0.00151   0.00000   0.00894   0.00898   2.10337
   A34        2.09440   0.00644   0.00000   0.02894   0.02901   2.12341
   A35        2.09440   0.00109   0.00000   0.01121   0.01118   2.10557
   A36        2.09440  -0.00753   0.00000  -0.04015  -0.04019   2.05421
    D1        0.00000  -0.00000   0.00000  -0.00000  -0.00000   0.00000
    D2        3.14159   0.00000   0.00000   0.00000   0.00000   3.14159
    D3       -3.14159  -0.00000   0.00000  -0.00000  -0.00000  -3.14159
    D4       -0.00000   0.00000   0.00000   0.00000   0.00000  -0.00000
    D5       -0.00000   0.00000   0.00000   0.00000   0.00000  -0.00000
    D6        3.14159   0.00000   0.00000  -0.00000  -0.00000   3.14159
    D7        3.14159   0.00000   0.00000   0.00000   0.00000   3.14159
    D8        0.00000  -0.00000   0.00000  -0.00000  -0.00000  -0.00000
    D9       -0.00000  -0.00000   0.00000  -0.00000  -0.00000  -0.00000
   D10        3.14159  -0.00000   0.00000  -0.00000  -0.00000   3.14159
   D11        3.14159  -0.00000   0.00000  -0.00000  -0.00000   3.14159
   D12       -0.00000  -0.00000   0.00000  -0.00000  -0.00000  -0.00000
   D13        0.00000  -0.00000   0.00000  -0.00000  -0.00000  -0.00000
   D14        3.14159   0.00000   0.00000   0.00000   0.00000   3.14159
   D15       -3.14159  -0.00000   0.00000  -0.00000  -0.00000  -3.14159
   D16        0.00000  -0.00000   0.00000  -0.00000  -0.00000   0.00000
   D17       -0.00000   0.00000   0.00000   0.00000   0.00000  -0.00000
   D18        3.14159   0.00000   0.00000   0.00000   0.00000   3.14159
   D19        3.14159   0.00000   0.00000   0.00000   0.00000   3.14159
   D20        0.00000  -0.00000   0.00000  -0.00000  -0.00000  -0.00000
   D21        0.00000  -0.00000   0.00000  -0.00000  -0.00000   0.00000
   D22       -3.14159  -0.00000   0.00000  -0.00000  -0.00000  -3.14159
   D23       -3.14159  -0.00000   0.00000  -0.00000  -0.00000  -3.14159
   D24        0.00000   0.00000   0.00000   0.00000   0.00000   0.00000
   D25       -0.00000   0.00000   0.00000   0.00000   0.00000   0.00000
   D26        3.14159   0.00000   0.00000   0.00000   0.00000  -3.14159
   D27        3.14159   0.00000   0.00000   0.00000   0.00000   3.14159
   D28       -0.00000   0.00000   0.00000   0.00000   0.00000  -0.00000
   D29        3.14159   0.00000   0.00000   0.00000   0.00000  -3.14159
   D30        0.00000  -0.00000   0.00000  -0.00000  -0.00000   0.00000
   D31        0.00000  -0.00000   0.00000  -0.00000  -0.00000   0.00000
   D32       -3.14159  -0.00000   0.00000  -0.00000  -0.00000  -3.14159
   D33       -3.14159  -0.00000   0.00000  -0.00000  -0.00000   3.14159
   D34        0.00000  -0.00000   0.00000  -0.00000  -0.00000  -0.00000
   D35       -0.00000   0.00000   0.00000   0.00000   0.00000  -0.00000
   D36        3.14159   0.00000   0.00000   0.00000   0.00000   3.14159
   D37       -0.00000  -0.00000   0.00000   0.00000   0.00000  -0.00000
   D38        3.14159  -0.00000   0.00000  -0.00000  -0.00000   3.14159
   D39        3.14159   0.00000   0.00000   0.00000   0.00000   3.14159
   D40       -0.00000   0.00000   0.00000   0.00000   0.00000  -0.00000
   D41       -0.00000   0.00000   0.00000   0.00000   0.00000   0.00000
   D42       -3.14159  -0.00000   0.00000  -0.00000  -0.00000  -3.14159
   D43        3.14159   0.00000   0.00000   0.00000   0.00000  -3.14159
   D44        0.00000  -0.00000   0.00000  -0.00000  -0.00000   0.00000
   D45        0.00000   0.00000   0.00000   0.00000   0.00000   0.00000
   D46       -3.14159  -0.00000   0.00000  -0.00000  -0.00000  -3.14159
   D47        3.14159   0.00000   0.00000   0.00000   0.00000  -3.14159
   D48        0.00000  -0.00000   0.00000  -0.00000  -0.00000   0.00000
   D49        0.00000  -0.00000   0.00000  -0.00000  -0.00000  -0.00000
   D50       -3.14159  -0.00000   0.00000  -0.00000  -0.00000  -3.14159
   D51        3.14159   0.00000   0.00000   0.00000   0.00000   3.14159
   D52       -0.00000   0.00000   0.00000   0.00000   0.00000  -0.00000
         Item               Value     Threshold  Converged?
 Maximum Force            0.014660     0.000450     NO 
 RMS     Force            0.004732     0.000300     NO 
 Maximum Displacement     0.082560     0.001800     NO 
 RMS     Displacement     0.020163     0.001200     NO 
 Predicted change in Energy=-4.083053D-03
 GradGradGradGradGradGradGradGradGradGradGradGradGradGradGradGradGradGrad

                          Input orientation:                          
 ---------------------------------------------------------------------
 Center     Atomic      Atomic             Coordinates (Angstroms)
 Number     Number       Type             X           Y           Z
 ---------------------------------------------------------------------
      1          6           0       -4.206193   -1.976286   -0.065007
      2          6           0       -2.871438   -1.913497   -0.492955
      3          6           0       -2.162842   -0.716246   -0.501551
      4          6           0       -2.786555    0.449198   -0.077187
      5          6           0       -4.106257    0.425530    0.353148
      6          6           0       -4.803180   -0.778580    0.356611
      7          6           0       -4.970729   -3.282513   -0.058447
      8          6           0       -4.373745   -4.480217   -0.480070
      9          6           0       -5.070667   -5.684327   -0.476608
     10          6           0       -6.390368   -5.707996   -0.046267
     11          6           0       -7.014079   -4.542554    0.378103
     12          6           0       -6.305483   -3.345303    0.369506
     13          1           0       -2.359180   -2.801884   -0.828566
     14          1           0       -1.133252   -0.689136   -0.835662
     15          1           0       -4.585329    1.338992    0.682534
     16          1           0       -5.827130   -0.764430    0.696612
     17          1           0       -3.349796   -4.494367   -0.820076
     18          1           0       -4.591598   -6.597789   -0.806000
     19          1           0       -8.043667   -4.569664    0.712218
     20          1           0       -6.817740   -2.456917    0.705122
     21         17           0       -1.900063    1.963789   -0.084793
     22         17           0       -7.276860   -7.222588   -0.038661
 ---------------------------------------------------------------------
                    Distance matrix (angstroms):
                    1          2          3          4          5
     1  C    0.000000
     2  C    1.403087   0.000000
     3  C    2.439991   1.391256   0.000000
     4  C    2.810426   2.400499   1.388295   0.000000
     5  C    2.439991   2.776997   2.410607   1.388295   0.000000
     6  C    1.403087   2.396127   2.776997   2.400499   1.391256
     7  C    1.513535   2.543624   3.829661   4.323960   3.829661
     8  C    2.543624   2.974079   4.365322   5.194288   4.983187
     9  C    3.829661   4.365322   5.756553   6.557197   6.240908
    10  C    4.323960   5.194288   6.557197   7.134386   6.557197
    11  C    3.829661   4.983187   6.240908   6.557197   5.756553
    12  C    2.543624   3.819237   4.983187   5.194288   4.365322
    13  H    2.162428   1.079016   2.120229   3.364038   3.855506
    14  H    3.419595   2.153555   1.082783   2.145810   3.390355
    15  H    3.419595   3.859777   3.390355   2.145810   1.082783
    16  H    2.162428   3.386966   3.855506   3.364038   2.120229
    17  H    2.764829   2.645132   3.972974   5.030702   5.114105
    18  H    4.696370   4.999953   6.370564   7.310907   7.134856
    19  H    4.696370   5.937981   7.134856   7.310907   6.370564
    20  H    2.764829   4.159806   5.114105   5.030702   3.972974
    21  Cl   4.565394   4.017899   2.724946   1.754968   2.724946
    22  Cl   6.078929   6.913796   8.288543   8.889354   8.288543
                    6          7          8          9         10
     6  C    0.000000
     7  C    2.543624   0.000000
     8  C    3.819237   1.403087   0.000000
     9  C    4.983187   2.439991   1.391256   0.000000
    10  C    5.194288   2.810426   2.400499   1.388295   0.000000
    11  C    4.365322   2.439991   2.776997   2.410607   1.388295
    12  C    2.974079   1.403087   2.396127   2.776997   2.400499
    13  H    3.386966   2.764829   2.645132   3.972974   5.030702
    14  H    3.859777   4.696370   4.999953   6.370564   7.310907
    15  H    2.153555   4.696370   5.937981   7.134856   7.310907
    16  H    1.079016   2.764829   4.159806   5.114105   5.030702
    17  H    4.159806   2.162428   1.079016   2.120229   3.364038
    18  H    5.937981   3.419595   2.153555   1.082783   2.145810
    19  H    4.999953   3.419595   3.859777   3.390355   2.145809
    20  H    2.645132   2.162428   3.386966   3.855506   3.364038
    21  Cl   4.017899   6.078929   6.913796   8.288543   8.889354
    22  Cl   6.913796   4.565394   4.017899   2.724946   1.754968
                   11         12         13         14         15
    11  C    0.000000
    12  C    1.391256   0.000000
    13  H    5.114105   4.159806   0.000000
    14  H    7.134856   5.937981   2.442673   0.000000
    15  H    6.370564   4.999953   4.938220   4.281946   0.000000
    16  H    3.972974   2.645132   4.301635   4.938220   2.442673
    17  H    3.855506   3.386966   1.961095   4.403759   6.149183
    18  H    3.390355   3.859777   4.403759   6.846401   8.075163
    19  H    1.082783   2.153555   6.149183   8.075163   6.846401
    20  H    2.120229   1.079016   4.727574   6.149184   4.403759
    21  Cl   8.288543   6.913796   4.845165   2.861786   2.861786
    22  Cl   2.724946   4.017899   6.659591   9.003617   9.003617
                   16         17         18         19         20
    16  H    0.000000
    17  H    4.727574   0.000000
    18  H    6.149183   2.442673   0.000000
    19  H    4.403759   4.938220   4.281946   0.000000
    20  H    1.961095   4.301635   4.938220   2.442673   0.000000
    21  Cl   4.845165   6.659591   9.003617   9.003617   6.659591
    22  Cl   6.659591   4.845165   2.861786   2.861786   4.845165
                   21         22
    21  Cl   0.000000
    22  Cl  10.644323   0.000000
 Stoichiometry    C12H8Cl2
 Framework group  C1[X(C12H8Cl2)]
 Deg. of freedom    60
 Full point group                 C1      NOp   1
 Largest Abelian subgroup         C1      NOp   1
 Largest concise Abelian subgroup C1      NOp   1
                         Standard orientation:                         
 ---------------------------------------------------------------------
 Center     Atomic      Atomic             Coordinates (Angstroms)
 Number     Number       Type             X           Y           Z
 ---------------------------------------------------------------------
      1          6           0       -0.756767    0.000000    0.000000
      2          6           0       -1.487039   -1.198063   -0.000003
      3          6           0       -2.878277   -1.205304   -0.000003
      4          6           0       -3.567193    0.000000    0.000000
      5          6           0       -2.878277    1.205304    0.000003
      6          6           0       -1.487039    1.198063    0.000003
      7          6           0        0.756767    0.000000   -0.000000
      8          6           0        1.487039   -1.198063    0.000003
      9          6           0        2.878277   -1.205304    0.000003
     10          6           0        3.567193    0.000000   -0.000000
     11          6           0        2.878277    1.205304   -0.000003
     12          6           0        1.487039    1.198063   -0.000003
     13          1           0       -0.980547   -2.150817   -0.000005
     14          1           0       -3.423200   -2.140973   -0.000005
     15          1           0       -3.423200    2.140973    0.000006
     16          1           0       -0.980547    2.150817    0.000006
     17          1           0        0.980547   -2.150817    0.000005
     18          1           0        3.423200   -2.140973    0.000006
     19          1           0        3.423200    2.140973   -0.000006
     20          1           0        0.980547    2.150817   -0.000006
     21         17           0       -5.322161    0.000000   -0.000000
     22         17           0        5.322161    0.000000    0.000000
 ---------------------------------------------------------------------
 Rotational constants (GHZ):           2.8754451           0.1770112           0.1667464
 Standard basis: 6-311+G(d,p) (5D, 7F)
 There are   386 symmetry adapted cartesian basis functions of A   symmetry.
 There are   372 symmetry adapted basis functions of A   symmetry.
   372 basis functions,   602 primitive gaussians,   386 cartesian basis functions
    57 alpha electrons       57 beta electrons
       nuclear repulsion energy       923.1523718135 Hartrees.
 NAtoms=   22 NActive=   22 NUniq=   22 SFac= 1.00D+00 NAtFMM=   60 NAOKFM=F Big=F
 Integral buffers will be    131072 words long.
 Raffenetti 2 integral format.
 Two-electron integral symmetry is turned on.
 One-electron integrals computed using PRISM.
 NBasis=   372 RedAO= T EigKep=  1.18D-06  NBF=   372
 NBsUse=   368 1.00D-06 EigRej=  8.85D-07 NBFU=   368
 Initial guess from the checkpoint file:  "/scratch/pkc/Gau-3765.chk"
 B after Tr=     0.000000   -0.000000    0.000000
         Rot=    1.000000    0.000000    0.000000   -0.000000 Ang=   0.00 deg.
 ExpMin= 4.38D-02 ExpMax= 1.06D+05 ExpMxC= 3.62D+03 IAcc=3 IRadAn=         5 AccDes= 0.00D+00
 Harris functional with IExCor=  402 and IRadAn=       5 diagonalized for initial guess.
 HarFok:  IExCor=  402 AccDes= 0.00D+00 IRadAn=         5 IDoV= 1 UseB2=F ITyADJ=14
 ICtDFT=  3500011 ScaDFX=  1.000000  1.000000  1.000000  1.000000
 FoFCou: FMM=F IPFlag=           0 FMFlag=      100000 FMFlg1=           0
         NFxFlg=           0 DoJE=T BraDBF=F KetDBF=T FulRan=T
         wScrn=  0.000000 ICntrl=       500 IOpCl=  0 I1Cent=   200000004 NGrid=           0
         NMat0=    1 NMatS0=      1 NMatT0=    0 NMatD0=    1 NMtDS0=    0 NMtDT0=    0
 Petite list used in FoFCou.
 Requested convergence on RMS density matrix=1.00D-08 within  32 cycles.
 Requested convergence on MAX density matrix=1.00D-06.
 Requested convergence on             energy=1.00D-06.
 No special actions if energy rises.
 SCF Done:  E(RB3LYP) =  -1382.66473481     A.U. after   13 cycles
            NFock= 13  Conv=0.15D-08     -V/T= 2.0031
 QCSCF skips out because SCF is already converged.
 Calling FoFJK, ICntrl=      2127 FMM=F ISym2X=0 I1Cent= 0 IOpClX= 0 NMat=1 NMatS=1 NMatT=0.
 ***** Axes restored to original set *****
 -------------------------------------------------------------------
 Center     Atomic                   Forces (Hartrees/Bohr)
 Number     Number              X              Y              Z
 -------------------------------------------------------------------
      1        6          -0.006613524   -0.011299346    0.000056736
      2        6          -0.000718642    0.002803190    0.000763255
      3        6           0.001062992   -0.001487630   -0.000629603
      4        6           0.000252303    0.000431061   -0.000002162
      5        6          -0.001814833    0.000203116    0.000636026
      6        6           0.002792651    0.000740273   -0.000781015
      7        6           0.006613515    0.011299351   -0.000056758
      8        6          -0.002792637   -0.000740281    0.000781051
      9        6           0.001814815   -0.000203109   -0.000636069
     10        6          -0.000252302   -0.000431057    0.000002153
     11        6          -0.001062980    0.001487623    0.000629637
     12        6           0.000718649   -0.002803194   -0.000763234
     13        1           0.001004664   -0.001200614   -0.000556466
     14        1          -0.000113547   -0.000275823   -0.000014384
     15        1          -0.000184814   -0.000233952    0.000016970
     16        1          -0.001536335    0.000292247    0.000561021
     17        1           0.001536314   -0.000292234   -0.000561086
     18        1           0.000184827    0.000233945   -0.000016932
     19        1           0.000113542    0.000275826    0.000014371
     20        1          -0.001004653    0.001200609    0.000556498
     21       17           0.000530814    0.000906914   -0.000004563
     22       17          -0.000530817   -0.000906914    0.000004555
 -------------------------------------------------------------------
 Cartesian Forces:  Max     0.011299351 RMS     0.002485490

 GradGradGradGradGradGradGradGradGradGradGradGradGradGradGradGradGradGrad
 Berny optimization.
 Using GEDIIS/GDIIS optimizer.
 FormGI is forming the generalized inverse of G from B-inverse, IUseBI=4.
 Internal  Forces:  Max     0.010568063 RMS     0.001147730
 Search for a local minimum.
 Step number   2 out of a maximum of  121
 All quantities printed in internal units (Hartrees-Bohrs-Radians)
 Mixed Optimization -- RFO/linear search
 Update second derivatives using D2CorX and points    1    2
 DE= -4.42D-03 DEPred=-4.08D-03 R= 1.08D+00
 TightC=F SS=  1.41D+00  RLast= 1.68D-01 DXNew= 5.0454D-01 5.0366D-01
 Trust test= 1.08D+00 RLast= 1.68D-01 DXMaxT set to 5.04D-01
 ITU=  1  0
 Use linear search instead of GDIIS.
     Eigenvalues ---    0.00237   0.01478   0.01478   0.02070   0.02070
     Eigenvalues ---    0.02070   0.02070   0.02070   0.02070   0.02070
     Eigenvalues ---    0.02070   0.02070   0.02070   0.02070   0.02070
     Eigenvalues ---    0.02070   0.02070   0.02070   0.02070   0.15698
     Eigenvalues ---    0.16000   0.16000   0.16000   0.16000   0.16000
     Eigenvalues ---    0.16000   0.16112   0.20329   0.22000   0.22000
     Eigenvalues ---    0.22968   0.23693   0.24000   0.25000   0.25000
     Eigenvalues ---    0.25000   0.25000   0.27181   0.29539   0.29747
     Eigenvalues ---    0.36771   0.37230   0.37230   0.37230   0.37230
     Eigenvalues ---    0.37230   0.37230   0.37876   0.41161   0.41161
     Eigenvalues ---    0.41674   0.42619   0.45191   0.45389   0.45389
     Eigenvalues ---    0.45389   0.45389   0.45389   0.45389   0.49053
 RFO step:  Lambda=-5.05640450D-04 EMin= 2.36824243D-03
 Quartic linear search produced a step of  0.12081.
 Iteration  1 RMS(Cart)=  0.00637321 RMS(Int)=  0.00000989
 Iteration  2 RMS(Cart)=  0.00001016 RMS(Int)=  0.00000724
 Iteration  3 RMS(Cart)=  0.00000000 RMS(Int)=  0.00000724
 Variable       Old X    -DE/DX   Delta X   Delta X   Delta X     New X
                                 (Linear)    (Quad)   (Total)
    R1        2.65145   0.00069   0.00039   0.00138   0.00178   2.65323
    R2        2.65145   0.00069   0.00039   0.00138   0.00178   2.65323
    R3        2.86017  -0.01057  -0.00604  -0.03835  -0.04439   2.81577
    R4        2.62909  -0.00026  -0.00232   0.00051  -0.00180   2.62729
    R5        2.03904   0.00164   0.00206   0.00389   0.00594   2.04499
    R6        2.62350   0.00142  -0.00299   0.00512   0.00212   2.62562
    R7        2.04616  -0.00011   0.00292  -0.00181   0.00111   2.04728
    R8        2.62350   0.00142  -0.00299   0.00512   0.00212   2.62562
    R9        3.31641   0.00105  -0.00115   0.00457   0.00342   3.31983
   R10        2.62909  -0.00026  -0.00232   0.00051  -0.00180   2.62729
   R11        2.04616  -0.00011   0.00292  -0.00181   0.00111   2.04728
   R12        2.03904   0.00164   0.00206   0.00389   0.00594   2.04499
   R13        2.65145   0.00069   0.00039   0.00138   0.00178   2.65323
   R14        2.65145   0.00069   0.00039   0.00138   0.00178   2.65323
   R15        2.62909  -0.00026  -0.00232   0.00051  -0.00180   2.62729
   R16        2.03904   0.00164   0.00206   0.00389   0.00594   2.04499
   R17        2.62350   0.00142  -0.00299   0.00512   0.00212   2.62562
   R18        2.04616  -0.00011   0.00292  -0.00181   0.00111   2.04728
   R19        2.62350   0.00142  -0.00299   0.00512   0.00212   2.62562
   R20        3.31641   0.00105  -0.00115   0.00457   0.00342   3.31983
   R21        2.62909  -0.00026  -0.00232   0.00051  -0.00180   2.62729
   R22        2.04616  -0.00011   0.00292  -0.00181   0.00111   2.04728
   R23        2.03904   0.00164   0.00206   0.00389   0.00594   2.04499
    A1        2.04678  -0.00110  -0.00575  -0.00257  -0.00830   2.03848
    A2        2.11820   0.00055   0.00288   0.00129   0.00415   2.12235
    A3        2.11820   0.00055   0.00288   0.00129   0.00415   2.12235
    A4        2.12341   0.00096   0.00350   0.00260   0.00612   2.12953
    A5        2.10557  -0.00020   0.00135  -0.00103   0.00031   2.10588
    A6        2.05421  -0.00076  -0.00486  -0.00157  -0.00643   2.04777
    A7        2.08485  -0.00016  -0.00115  -0.00011  -0.00127   2.08357
    A8        2.10337  -0.00020   0.00108  -0.00221  -0.00112   2.10226
    A9        2.09497   0.00037   0.00007   0.00231   0.00239   2.09736
   A10        2.10309  -0.00050   0.00105  -0.00242  -0.00140   2.10169
   A11        2.09005   0.00025  -0.00052   0.00121   0.00070   2.09075
   A12        2.09005   0.00025  -0.00052   0.00121   0.00070   2.09075
   A13        2.08485  -0.00016  -0.00115  -0.00011  -0.00127   2.08357
   A14        2.09497   0.00037   0.00007   0.00231   0.00239   2.09736
   A15        2.10337  -0.00020   0.00108  -0.00221  -0.00112   2.10226
   A16        2.12341   0.00096   0.00350   0.00260   0.00612   2.12953
   A17        2.10557  -0.00020   0.00135  -0.00103   0.00031   2.10588
   A18        2.05421  -0.00076  -0.00486  -0.00157  -0.00643   2.04777
   A19        2.11820   0.00055   0.00288   0.00129   0.00415   2.12235
   A20        2.11820   0.00055   0.00288   0.00129   0.00415   2.12235
   A21        2.04678  -0.00110  -0.00575  -0.00257  -0.00830   2.03848
   A22        2.12341   0.00096   0.00350   0.00260   0.00612   2.12953
   A23        2.10557  -0.00020   0.00135  -0.00103   0.00031   2.10588
   A24        2.05421  -0.00076  -0.00486  -0.00157  -0.00643   2.04777
   A25        2.08485  -0.00016  -0.00115  -0.00011  -0.00127   2.08357
   A26        2.10337  -0.00020   0.00108  -0.00221  -0.00112   2.10226
   A27        2.09497   0.00037   0.00007   0.00231   0.00239   2.09736
   A28        2.10309  -0.00050   0.00105  -0.00242  -0.00140   2.10169
   A29        2.09005   0.00025  -0.00052   0.00121   0.00070   2.09075
   A30        2.09005   0.00025  -0.00052   0.00121   0.00070   2.09075
   A31        2.08485  -0.00016  -0.00115  -0.00011  -0.00127   2.08357
   A32        2.09497   0.00037   0.00007   0.00231   0.00239   2.09736
   A33        2.10337  -0.00020   0.00108  -0.00221  -0.00112   2.10226
   A34        2.12341   0.00096   0.00350   0.00260   0.00612   2.12953
   A35        2.10557  -0.00020   0.00135  -0.00103   0.00031   2.10588
   A36        2.05421  -0.00076  -0.00486  -0.00157  -0.00643   2.04777
    D1        0.00000  -0.00000  -0.00000  -0.00000  -0.00000  -0.00000
    D2        3.14159  -0.00000   0.00000  -0.00000  -0.00000   3.14159
    D3       -3.14159  -0.00000  -0.00000  -0.00000  -0.00000  -3.14159
    D4       -0.00000  -0.00000   0.00000  -0.00000  -0.00000  -0.00000
    D5       -0.00000   0.00000   0.00000   0.00000   0.00000   0.00000
    D6        3.14159  -0.00000  -0.00000  -0.00000  -0.00000   3.14159
    D7        3.14159   0.00000   0.00000   0.00000   0.00000   3.14159
    D8       -0.00000  -0.00000  -0.00000  -0.00000  -0.00000  -0.00000
    D9       -0.00000  -0.00000  -0.00000  -0.00001  -0.00001  -0.00002
   D10        3.14159  -0.00000  -0.00000  -0.00001  -0.00001   3.14157
   D11        3.14159  -0.00000  -0.00000  -0.00001  -0.00001   3.14157
   D12       -0.00000  -0.00000  -0.00000  -0.00001  -0.00001  -0.00002
   D13       -0.00000   0.00000  -0.00000   0.00000   0.00000  -0.00000
   D14        3.14159  -0.00000   0.00000  -0.00000  -0.00000   3.14159
   D15       -3.14159   0.00000  -0.00000   0.00000   0.00000  -3.14159
   D16        0.00000  -0.00000  -0.00000   0.00000  -0.00000   0.00000
   D17       -0.00000   0.00000   0.00000   0.00000   0.00000   0.00000
   D18        3.14159   0.00000   0.00000   0.00000   0.00000   3.14159
   D19        3.14159   0.00000   0.00000   0.00000   0.00000  -3.14159
   D20       -0.00000   0.00000  -0.00000   0.00000   0.00000   0.00000
   D21        0.00000  -0.00000  -0.00000   0.00000  -0.00000   0.00000
   D22       -3.14159  -0.00000  -0.00000  -0.00000  -0.00000  -3.14159
   D23       -3.14159  -0.00000  -0.00000  -0.00000  -0.00000  -3.14159
   D24        0.00000  -0.00000   0.00000  -0.00000  -0.00000   0.00000
   D25        0.00000  -0.00000   0.00000  -0.00000  -0.00000  -0.00000
   D26       -3.14159   0.00000   0.00000   0.00000   0.00000  -3.14159
   D27        3.14159   0.00000   0.00000   0.00000   0.00000   3.14159
   D28       -0.00000   0.00000   0.00000   0.00000   0.00000   0.00000
   D29       -3.14159  -0.00000   0.00000  -0.00000  -0.00000  -3.14159
   D30        0.00000  -0.00000  -0.00000  -0.00000  -0.00000  -0.00000
   D31        0.00000  -0.00000  -0.00000  -0.00000  -0.00000   0.00000
   D32       -3.14159  -0.00000  -0.00000  -0.00000  -0.00000   3.14159
   D33        3.14159   0.00000  -0.00000   0.00000   0.00000  -3.14159
   D34       -0.00000  -0.00000  -0.00000  -0.00000  -0.00000  -0.00000
   D35       -0.00000   0.00000   0.00000  -0.00000  -0.00000  -0.00000
   D36        3.14159  -0.00000   0.00000  -0.00000  -0.00000   3.14159
   D37       -0.00000   0.00000   0.00000   0.00000   0.00000  -0.00000
   D38        3.14159   0.00000  -0.00000   0.00000   0.00000   3.14159
   D39        3.14159   0.00000   0.00000   0.00000   0.00000  -3.14159
   D40       -0.00000   0.00000   0.00000   0.00000   0.00000   0.00000
   D41        0.00000  -0.00000   0.00000  -0.00000  -0.00000  -0.00000
   D42       -3.14159  -0.00000  -0.00000   0.00000  -0.00000   3.14159
   D43       -3.14159  -0.00000   0.00000  -0.00000  -0.00000  -3.14159
   D44        0.00000  -0.00000  -0.00000  -0.00000  -0.00000   0.00000
   D45        0.00000   0.00000   0.00000   0.00000   0.00000   0.00000
   D46       -3.14159  -0.00000  -0.00000  -0.00000  -0.00000  -3.14159
   D47       -3.14159  -0.00000   0.00000  -0.00000  -0.00000  -3.14159
   D48        0.00000  -0.00000  -0.00000  -0.00000  -0.00000   0.00000
   D49       -0.00000   0.00000  -0.00000   0.00000   0.00000  -0.00000
   D50       -3.14159   0.00000  -0.00000   0.00000   0.00000  -3.14159
   D51        3.14159   0.00000   0.00000   0.00000   0.00000   3.14159
   D52       -0.00000   0.00000   0.00000   0.00000   0.00000   0.00000
         Item               Value     Threshold  Converged?
 Maximum Force            0.010568     0.000450     NO 
 RMS     Force            0.001148     0.000300     NO 
 Maximum Displacement     0.019156     0.001800     NO 
 RMS     Displacement     0.006378     0.001200     NO 
 Predicted change in Energy=-3.072045D-04
 GradGradGradGradGradGradGradGradGradGradGradGradGradGradGradGradGradGrad

                          Input orientation:                          
 ---------------------------------------------------------------------
 Center     Atomic      Atomic             Coordinates (Angstroms)
 Number     Number       Type             X           Y           Z
 ---------------------------------------------------------------------
      1          6           0       -4.212127   -1.986423   -0.064956
      2          6           0       -2.876418   -1.917863   -0.492126
      3          6           0       -2.166109   -0.722745   -0.501687
      4          6           0       -2.789515    0.444140   -0.077162
      5          6           0       -4.110323    0.419499    0.353346
      6          6           0       -4.804551   -0.785066    0.355836
      7          6           0       -4.964796   -3.272376   -0.058498
      8          6           0       -4.372378   -4.473728   -0.479311
      9          6           0       -5.066607   -5.678294   -0.476821
     10          6           0       -6.387408   -5.702939   -0.046292
     11          6           0       -7.010807   -4.536058    0.378253
     12          6           0       -6.300498   -3.340939    0.368691
     13          1           0       -2.358687   -2.806225   -0.829528
     14          1           0       -1.136066   -0.698910   -0.836555
     15          1           0       -4.592469    1.331760    0.683514
     16          1           0       -5.831152   -0.766119    0.697604
     17          1           0       -3.345783   -4.492673   -0.821096
     18          1           0       -4.584466   -6.590551   -0.807005
     19          1           0       -8.040845   -4.559895    0.713138
     20          1           0       -6.818223   -2.452580    0.706111
     21         17           0       -1.902109    1.960294   -0.084776
     22         17           0       -7.274814   -7.219092   -0.038678
 ---------------------------------------------------------------------
                    Distance matrix (angstroms):
                    1          2          3          4          5
     1  C    0.000000
     2  C    1.404027   0.000000
     3  C    2.444136   1.390301   0.000000
     4  C    2.816311   2.399752   1.389416   0.000000
     5  C    2.444136   2.774997   2.411591   1.389416   0.000000
     6  C    1.404027   2.391645   2.774997   2.399752   1.390301
     7  C    1.490043   2.526670   3.811782   4.306354   3.811782
     8  C    2.526670   2.961504   4.351781   5.181951   4.970480
     9  C    3.811782   4.351781   5.742036   6.544393   6.227900
[...]
     12          6           0       -1.127205    1.464883   -0.416244
     13          1           0        2.005136   -0.935280   -0.767742
     14          1           0        2.008236   -3.402415   -0.752443
     15          1           0       -2.008236   -3.402415    0.752443
     16          1           0       -2.005136   -0.935280    0.767742
     17          1           0        2.005136    0.935280    0.767742
     18          1           0        2.008236    3.402415    0.752443
     19          1           0       -2.008236    3.402415   -0.752443
     20          1           0       -2.005136    0.935280   -0.767742
     21         17           0       -0.000000   -5.300918   -0.000000
     22         17           0        0.000000    5.300918   -0.000000
 ---------------------------------------------------------------------
 Rotational constants (GHZ):           2.8602637           0.1775821           0.1696033

 **********************************************************************

            Population analysis using the SCF Density.

 **********************************************************************

 Orbital symmetries:
       Occupied  (B) (A) (B) (A) (A) (B) (A) (B) (B) (A) (A) (B)
                 (B) (A) (B) (A) (B) (A) (B) (A) (B) (A) (A) (B)
                 (A) (B) (A) (B) (A) (B) (B) (A) (A) (B) (A) (B)
                 (B) (A) (A) (B) (B) (A) (A) (A) (B) (B) (B) (A)
                 (A) (A) (B) (B) (A) (B) (A) (A) (B)
       Virtual   (A) (B) (A) (B) (A) (B) (A) (B) (B) (A) (A) (A)
                 (A) (B) (B) (B) (B) (A) (B) (A) (A) (A) (B) (B)
                 (A) (B) (A) (A) (B) (B) (B) (A) (A) (B) (A) (B)
                 (A) (A) (B) (B) (A) (B) (A) (B) (A) (B) (B) (A)
                 (B) (B) (A) (A) (B) (B) (A) (A) (B) (B) (A) (B)
                 (A) (A) (A) (B) (A) (A) (B) (B) (A) (B) (B) (A)
                 (A) (B) (A) (B) (A) (B) (B) (A) (B) (A) (B) (A)
                 (B) (A) (A) (B) (A) (B) (A) (A) (B) (B) (B) (A)
                 (B) (A) (B) (A) (B) (B) (B) (A) (A) (A) (B) (A)
                 (B) (A) (B) (A) (A) (B) (B) (A) (A) (A) (B) (B)
                 (B) (B) (A) (A) (B) (A) (B) (A) (B) (B) (A) (A)
                 (A) (A) (B) (B) (A) (A) (B) (B) (A) (A) (B) (A)
                 (B) (A) (A) (B) (B) (B) (B) (A) (B) (A) (B) (B)
                 (A) (A) (A) (B) (A) (A) (B) (B) (A) (B) (B) (A)
                 (A) (A) (B) (A) (B) (A) (B) (A) (B) (B) (A) (A)
                 (B) (A) (B) (A) (B) (B) (B) (A) (A) (A) (B) (B)
                 (B) (A) (B) (A) (B) (A) (A) (B) (A) (B) (B) (A)
                 (A) (B) (A) (B) (B) (A) (A) (B) (A) (B) (A) (A)
                 (B) (A) (B) (B) (A) (B) (B) (A) (A) (B) (B) (A)
                 (A) (B) (A) (B) (B) (B) (A) (A) (B) (A) (A) (B)
                 (B) (A) (A) (A) (B) (B) (A) (A) (B) (B) (A) (B)
                 (B) (A) (B) (A) (B) (A) (A) (B) (B) (A) (B) (A)
                 (B) (A) (A) (A) (B) (B) (A) (A) (B) (B) (A) (B)
                 (A) (A) (B) (B) (A) (B) (A) (B) (A) (A) (B) (A)
                 (B) (B) (B) (A) (A) (B) (A) (B) (B) (A) (B) (A)
                 (B) (A) (A) (B) (B) (A) (B) (A) (A) (B) (B) (A)
                 (A) (B)
 The electronic state is 1-A.
 Alpha  occ. eigenvalues -- -101.56041-101.56041 -10.24889 -10.24889 -10.20691
 Alpha  occ. eigenvalues --  -10.20662 -10.19951 -10.19951 -10.19950 -10.19949
 Alpha  occ. eigenvalues --  -10.19816 -10.19816 -10.19815 -10.19815  -9.47497
 Alpha  occ. eigenvalues --   -9.47497  -7.23954  -7.23954  -7.22982  -7.22982
 Alpha  occ. eigenvalues --   -7.22948  -7.22948  -0.90948  -0.90261  -0.86597
 Alpha  occ. eigenvalues --   -0.84175  -0.77871  -0.77807  -0.77162  -0.72389
 Alpha  occ. eigenvalues --   -0.64920  -0.63331  -0.62478  -0.59844  -0.55228
 Alpha  occ. eigenvalues --   -0.50689  -0.50194  -0.48938  -0.47521  -0.46784
 Alpha  occ. eigenvalues --   -0.45165  -0.44547  -0.44480  -0.41437  -0.40642
 Alpha  occ. eigenvalues --   -0.40244  -0.38526  -0.37067  -0.37020  -0.35566
 Alpha  occ. eigenvalues --   -0.33718  -0.32401  -0.32320  -0.28049  -0.28041
 Alpha  occ. eigenvalues --   -0.27909  -0.24110
 Alpha virt. eigenvalues --   -0.05713  -0.03891  -0.03647  -0.00954  -0.00917
 Alpha virt. eigenvalues --    0.00528   0.01003   0.01026   0.01150   0.02630
 Alpha virt. eigenvalues --    0.03147   0.04140   0.04201   0.04545   0.05163
 Alpha virt. eigenvalues --    0.06137   0.06464   0.06640   0.07376   0.07624
 Alpha virt. eigenvalues --    0.08493   0.09192   0.09567   0.10510   0.10575
 Alpha virt. eigenvalues --    0.10688   0.11424   0.11514   0.11597   0.12460
 Alpha virt. eigenvalues --    0.13184   0.13267   0.13488   0.14800   0.14957
 Alpha virt. eigenvalues --    0.15107   0.15215   0.15491   0.16080   0.16152
 Alpha virt. eigenvalues --    0.16925   0.18243   0.18467   0.18931   0.19034
 Alpha virt. eigenvalues --    0.19451   0.19556   0.19862   0.20480   0.20638
 Alpha virt. eigenvalues --    0.20728   0.21123   0.21616   0.21666   0.22409
 Alpha virt. eigenvalues --    0.23218   0.23847   0.24222   0.24384   0.24908
 Alpha virt. eigenvalues --    0.24933   0.24967   0.25942   0.26004   0.28201
 Alpha virt. eigenvalues --    0.28298   0.28533   0.29029   0.29540   0.29825
 Alpha virt. eigenvalues --    0.29862   0.30449   0.30865   0.30906   0.32890
 Alpha virt. eigenvalues --    0.33804   0.34143   0.34217   0.35400   0.36710
 Alpha virt. eigenvalues --    0.43087   0.44395   0.44398   0.45219   0.45984
 Alpha virt. eigenvalues --    0.46186   0.47175   0.49026   0.50707   0.51525
 Alpha virt. eigenvalues --    0.51568   0.51877   0.52123   0.53400   0.54644
 Alpha virt. eigenvalues --    0.56272   0.56377   0.56997   0.57436   0.58508
 Alpha virt. eigenvalues --    0.58845   0.59821   0.60624   0.60794   0.61203
 Alpha virt. eigenvalues --    0.63429   0.64484   0.64594   0.64644   0.66093
 Alpha virt. eigenvalues --    0.66885   0.67738   0.67907   0.67909   0.69790
 Alpha virt. eigenvalues --    0.70133   0.70227   0.71092   0.71707   0.72819
 Alpha virt. eigenvalues --    0.75232   0.77213   0.77505   0.77790   0.82445
 Alpha virt. eigenvalues --    0.82673   0.83516   0.83916   0.84791   0.85038
 Alpha virt. eigenvalues --    0.85126   0.85620   0.85829   0.86265   0.86274
 Alpha virt. eigenvalues --    0.86430   0.86581   0.88372   0.88752   0.88905
 Alpha virt. eigenvalues --    0.89198   0.92047   0.93003   0.94306   0.94571
 Alpha virt. eigenvalues --    0.95863   0.97136   0.97513   0.97827   1.01666
 Alpha virt. eigenvalues --    1.01871   1.02260   1.05260   1.05298   1.07641
 Alpha virt. eigenvalues --    1.08417   1.09558   1.10722   1.13813   1.14515
 Alpha virt. eigenvalues --    1.17861   1.17875   1.20302   1.24290   1.28510
 Alpha virt. eigenvalues --    1.28995   1.30824   1.31567   1.33522   1.37530
 Alpha virt. eigenvalues --    1.45060   1.47818   1.48650   1.50154   1.50491
 Alpha virt. eigenvalues --    1.50502   1.51815   1.51936   1.54914   1.55666
 Alpha virt. eigenvalues --    1.57739   1.58006   1.61249   1.62092   1.63177
 Alpha virt. eigenvalues --    1.65373   1.66922   1.68478   1.69517   1.71866
 Alpha virt. eigenvalues --    1.73922   1.74539   1.75290   1.75715   1.76104
 Alpha virt. eigenvalues --    1.78165   1.86598   1.87388   1.87390   1.89760
 Alpha virt. eigenvalues --    1.89981   1.91033   1.92100   1.94349   1.94640
 Alpha virt. eigenvalues --    1.94786   1.95080   1.96768   1.97270   1.98485
 Alpha virt. eigenvalues --    2.02513   2.04813   2.04860   2.06898   2.07228
 Alpha virt. eigenvalues --    2.07323   2.08733   2.16599   2.20842   2.23327
 Alpha virt. eigenvalues --    2.24912   2.27851   2.28451   2.28545   2.32351
 Alpha virt. eigenvalues --    2.32732   2.37629   2.39501   2.40284   2.40791
 Alpha virt. eigenvalues --    2.40955   2.41936   2.45368   2.53144   2.54498
 Alpha virt. eigenvalues --    2.56262   2.61163   2.61981   2.64837   2.65037
 Alpha virt. eigenvalues --    2.65686   2.65947   2.69851   2.70295   2.70410
 Alpha virt. eigenvalues --    2.71499   2.73253   2.73586   2.75104   2.75677
 Alpha virt. eigenvalues --    2.78337   2.78437   2.79270   2.79372   2.80489
 Alpha virt. eigenvalues --    2.84345   2.84617   2.85585   2.90811   2.91148
 Alpha virt. eigenvalues --    2.92291   2.92651   2.97901   3.02142   3.07131
 Alpha virt. eigenvalues --    3.08702   3.10222   3.17263   3.17705   3.17776
 Alpha virt. eigenvalues --    3.23606   3.32619   3.34956   3.37911   3.43404
 Alpha virt. eigenvalues --    3.47505   3.48817   3.55256   3.60505   3.62192
 Alpha virt. eigenvalues --    3.70417   3.78314   3.84185   3.95897   3.98587
 Alpha virt. eigenvalues --    4.12354   4.12365   4.14636   4.15861   4.44539
 Alpha virt. eigenvalues --    4.80639   4.84008   9.77115   9.77582  23.48331
 Alpha virt. eigenvalues --   23.64261  23.90266  23.91333  23.93763  23.94374
 Alpha virt. eigenvalues --   24.00085  24.04810  24.08265  24.08450  24.15129
 Alpha virt. eigenvalues --   24.16797  25.82693  25.83067  26.11772  26.12331
 Alpha virt. eigenvalues --   26.59513  26.60156 215.76192 215.76575
          Condensed to atoms (all electrons):
               1          2          3          4          5          6
     1  C   18.848323  -3.682589   0.810350  -5.950779   0.810350  -3.682585
     2  C   -3.682589  24.045840  -3.144424   0.925561  -0.865238 -11.381916
     3  C    0.810350  -3.144424  18.585737  -2.655318  -6.783137  -0.865237
     4  C   -5.950779   0.925561  -2.655318  15.653159  -2.655318   0.925562
     5  C    0.810350  -0.865238  -6.783137  -2.655318  18.585738  -3.144425
     6  C   -3.682585 -11.381916  -0.865237   0.925562  -3.144425  24.045841
     7  C   -0.313238  -1.220971   0.625449  -0.517416   0.625449  -1.220974
     8  C   -1.220974   3.510814  -0.354450   0.166928   0.245147  -2.253977
     9  C    0.625449  -0.354450   0.024224  -0.010641   0.026737   0.245147
    10  C   -0.517416   0.166929  -0.010641   0.044205  -0.010641   0.166928
    11  C    0.625449   0.245147   0.026737  -0.010641   0.024224  -0.354450
    12  C   -1.220971  -2.253974   0.245147   0.166929  -0.354450   3.510814
    13  H    0.075225   0.270809   0.013071  -0.020021  -0.014304   0.018295
    14  H   -0.019325  -0.011321   0.256504   0.084997   0.063186  -0.021069
    15  H   -0.019325  -0.021069   0.063186   0.084997   0.256504  -0.011321
    16  H    0.075225   0.018295  -0.014304  -0.020021   0.013071   0.270808
    17  H   -0.044818   0.086006   0.003693   0.000136  -0.000755  -0.043211
    18  H   -0.001724   0.001712  -0.000045  -0.000014  -0.000237  -0.001189
    19  H   -0.001724  -0.001189  -0.000237  -0.000014  -0.000045   0.001712
    20  H   -0.044818  -0.043211  -0.000755   0.000136   0.003693   0.086006
    21  Cl  -0.218649   0.356237  -0.008432  -1.132727  -0.008432   0.356237
    22  Cl  -0.022963   0.002850  -0.000320   0.001151  -0.000320   0.002850
               7          8          9         10         11         12
     1  C   -0.313238  -1.220974   0.625449  -0.517416   0.625449  -1.220971
     2  C   -1.220971   3.510814  -0.354450   0.166929   0.245147  -2.253974
     3  C    0.625449  -0.354450   0.024224  -0.010641   0.026737   0.245147
     4  C   -0.517416   0.166928  -0.010641   0.044205  -0.010641   0.166929
     5  C    0.625449   0.245147   0.026737  -0.010641   0.024224  -0.354450
     6  C   -1.220974  -2.253977   0.245147   0.166928  -0.354450   3.510814
     7  C   18.848323  -3.682585   0.810350  -5.950779   0.810350  -3.682589
     8  C   -3.682585  24.045841  -3.144425   0.925562  -0.865237 -11.381916
     9  C    0.810350  -3.144425  18.585738  -2.655318  -6.783137  -0.865238
    10  C   -5.950779   0.925562  -2.655318  15.653159  -2.655318   0.925561
    11  C    0.810350  -0.865237  -6.783137  -2.655318  18.585737  -3.144424
    12  C   -3.682589 -11.381916  -0.865238   0.925561  -3.144424  24.045840
    13  H   -0.044818   0.086006   0.003693   0.000136  -0.000755  -0.043211
    14  H   -0.001724   0.001712  -0.000045  -0.000014  -0.000237  -0.001189
    15  H   -0.001724  -0.001189  -0.000237  -0.000014  -0.000045   0.001712
    16  H   -0.044818  -0.043211  -0.000755   0.000136   0.003693   0.086006
    17  H    0.075225   0.270808   0.013071  -0.020021  -0.014304   0.018295
    18  H   -0.019325  -0.011321   0.256504   0.084997   0.063186  -0.021069
    19  H   -0.019325  -0.021069   0.063186   0.084997   0.256504  -0.011321
    20  H    0.075225   0.018295  -0.014304  -0.020021   0.013071   0.270809
    21  Cl  -0.022963   0.002850  -0.000320   0.001151  -0.000320   0.002850
    22  Cl  -0.218649   0.356237  -0.008432  -1.132727  -0.008432   0.356237
              13         14         15         16         17         18
     1  C    0.075225  -0.019325  -0.019325   0.075225  -0.044818  -0.001724
     2  C    0.270809  -0.011321  -0.021069   0.018295   0.086006   0.001712
     3  C    0.013071   0.256504   0.063186  -0.014304   0.003693  -0.000045
     4  C   -0.020021   0.084997   0.084997  -0.020021   0.000136  -0.000014
     5  C   -0.014304   0.063186   0.256504   0.013071  -0.000755  -0.000237
     6  C    0.018295  -0.021069  -0.011321   0.270808  -0.043211  -0.001189
     7  C   -0.044818  -0.001724  -0.001724  -0.044818   0.075225  -0.019325
     8  C    0.086006   0.001712  -0.001189  -0.043211   0.270808  -0.011321
     9  C    0.003693  -0.000045  -0.000237  -0.000755   0.013071   0.256504
    10  C    0.000136  -0.000014  -0.000014   0.000136  -0.020021   0.084997
    11  C   -0.000755  -0.000237  -0.000045   0.003693  -0.014304   0.063186
    12  C   -0.043211  -0.001189   0.001712   0.086006   0.018295  -0.021069
    13  H    0.533307  -0.007944   0.000065  -0.000273  -0.000598   0.000034
    14  H   -0.007944   0.515055  -0.000329   0.000065   0.000034   0.000000
    15  H    0.000065  -0.000329   0.515055  -0.007944   0.000000   0.000000
    16  H   -0.000273   0.000065  -0.007944   0.533307   0.000019   0.000000
    17  H   -0.000598   0.000034   0.000000   0.000019   0.533307  -0.007944
    18  H    0.000034   0.000000   0.000000   0.000000  -0.007944   0.515055
    19  H    0.000000   0.000000   0.000000   0.000034   0.000065  -0.000329
    20  H    0.000019   0.000000   0.000034  -0.000598  -0.000273   0.000065
    21  Cl   0.000075  -0.009024  -0.009024   0.000075  -0.000132  -0.000001
    22  Cl  -0.000132  -0.000001  -0.000001  -0.000132   0.000075  -0.009024
              19         20         21         22
     1  C   -0.001724  -0.044818  -0.218649  -0.022963
     2  C   -0.001189  -0.043211   0.356237   0.002850
     3  C   -0.000237  -0.000755  -0.008432  -0.000320
     4  C   -0.000014   0.000136  -1.132727   0.001151
     5  C   -0.000045   0.003693  -0.008432  -0.000320
     6  C    0.001712   0.086006   0.356237   0.002850
     7  C   -0.019325   0.075225  -0.022963  -0.218649
     8  C   -0.021069   0.018295   0.002850   0.356237
     9  C    0.063186  -0.014304  -0.000320  -0.008432
    10  C    0.084997  -0.020021   0.001151  -1.132727
    11  C    0.256504   0.013071  -0.000320  -0.008432
    12  C   -0.011321   0.270809   0.002850   0.356237
    13  H    0.000000   0.000019   0.000075  -0.000132
    14  H    0.000000   0.000000  -0.009024  -0.000001
    15  H    0.000000   0.000034  -0.009024  -0.000001
    16  H    0.000034  -0.000598   0.000075  -0.000132
    17  H    0.000065  -0.000273  -0.000132   0.000075
    18  H   -0.000329   0.000065  -0.000001  -0.009024
    19  H    0.515055  -0.007944  -0.000001  -0.009024
    20  H   -0.007944   0.533307  -0.000132   0.000075
    21  Cl  -0.000001  -0.000132  17.332041   0.000020
    22  Cl  -0.009024   0.000075   0.000020  17.332041
 Mulliken charges:
               1
     1  C    1.091529
     2  C   -0.649847
     3  C   -0.816796
     4  C    0.919150
     5  C   -0.816796
     6  C   -0.649846
     7  C    1.091529
     8  C   -0.649846
     9  C   -0.816796
    10  C    0.919150
    11  C   -0.816796
    12  C   -0.649847
    13  H    0.131324
    14  H    0.150669
    15  H    0.150669
    16  H    0.131324
    17  H    0.131324
    18  H    0.150669
    19  H    0.150669
    20  H    0.131324
    21  Cl   0.358622
    22  Cl   0.358622
 Sum of Mulliken charges =  -0.00000
 Mulliken charges with hydrogens summed into heavy atoms:
               1
     1  C    1.091529
     2  C   -0.518523
     3  C   -0.666128
     4  C    0.919150
     5  C   -0.666128
     6  C   -0.518522
     7  C    1.091529
     8  C   -0.518522
     9  C   -0.666128
    10  C    0.919150
    11  C   -0.666128
    12  C   -0.518523
    21  Cl   0.358622
    22  Cl   0.358622
 Electronic spatial extent (au):  <R**2>=           5635.7535
 Charge=             -0.0000 electrons
 Dipole moment (field-independent basis, Debye):
    X=             -0.0000    Y=             -0.0000    Z=             -0.0000  Tot=              0.0000
 Quadrupole moment (field-independent basis, Debye-Ang):
   XX=            -85.6092   YY=           -112.6854   ZZ=            -98.6736
   XY=              0.0000   XZ=              0.0000   YZ=              0.0000
 Traceless Quadrupole moment (field-independent basis, Debye-Ang):
   XX=             13.3802   YY=            -13.6960   ZZ=              0.3158
   XY=              0.0000   XZ=              0.0000   YZ=              0.0000
 Octapole moment (field-independent basis, Debye-Ang**2):
  XXX=             -0.0000  YYY=             -0.0000  ZZZ=             -0.0000  XYY=             -0.0000
  XXY=              0.0000  XXZ=             -0.0000  XZZ=             -0.0000  YZZ=              0.0000
  YYZ=             -0.0000  XYZ=             13.4703
 Hexadecapole moment (field-independent basis, Debye-Ang**3):
 XXXX=           -519.4944 YYYY=          -7231.3488 ZZZZ=           -186.8992 XXXY=             -0.0000
 XXXZ=              0.0000 YYYX=             -0.0000 YYYZ=              0.0000 ZZZX=             -0.0000
 ZZZY=              0.0000 XXYY=          -1171.2408 XXZZ=           -120.2408 YYZZ=          -1195.2848
 XXYZ=              0.0000 YYXZ=             -0.0000 ZZXY=             -0.0000
 N-N= 9.245704358607D+02 E-N=-5.108582099283D+03  KE= 1.378417370528D+03
 Symmetry A    KE= 6.907430016194D+02
 Symmetry B    KE= 6.876743689081D+02
 1\1\GINC-DAMODAR\FOpt\RB3LYP\6-311+G(d,p)\C12H8Cl2\PKC\14-Mar-2022\0\\
 # opt b3lyp/6-311+g(d,p) scf=xqc\\Title Card Required\\0,1\C,-4.213602
 4659,-1.9889418573,-0.0649440763\C,-2.8115346873,-1.9721489335,-0.0785
 405745\C,-2.1015314997,-0.7754242603,-0.0846879292\C,-2.7989333309,0.4
 280588939,-0.0770805098\C,-4.1897102787,0.4468918106,-0.0635245366\C,-
 4.8854712953,-0.7581699436,-0.0576118511\C,-4.9633208951,-3.2698562842
 ,-0.0585122277\C,-4.5478988783,-4.3544385846,-0.8442391335\C,-5.245394
 7798,-5.5585113534,-0.8435923555\C,-6.3779899931,-5.6868570565,-0.0463
 756816\C,-6.8172100571,-4.6305525408,0.7448925376\C,-6.1089417908,-3.4
 328388614,0.7334791648\H,-2.2629926043,-2.9067652595,-0.0588651549\H,-
 1.0189786198,-0.7763322459,-0.0849612899\H,-4.7206093618,1.3903153179,
 -0.0679837437\H,-5.9690513982,-0.7376806892,-0.0726971069\H,-3.6808765
 5,-4.2514772997,-1.4864731018\H,-4.9198923804,-6.3848467929,-1.4625750
 407\H,-7.6943661994,-4.7467326536,1.3686079537\H,-6.440926064,-2.62167
 30947,1.3711230757\Cl,-1.9107995031,1.9454597661,-0.0846997606\Cl,-7.2
 661237777,-7.2042579533,-0.0387563\\Version=EM64L-G16RevB.01\State=1-A
 \HF=-1382.6682132\RMSD=3.202e-09\RMSF=1.482e-05\Dipole=0.,0.,0.\Quadru
 pole=3.8896804,-5.3453232,1.4556428,-8.2503414,-2.7536178,1.6701302\PG
 =C02 [X(C12H8Cl2)]\\@


 ONE BIG VICE IN A MAN IS APT TO KEEP OUT MANY SMALLER ONES.

                           -- BRET HARTE
 Job cpu time:       0 days  5 hours 37 minutes 43.0 seconds.
 Elapsed time:       0 days  2 hours 10 minutes 31.1 seconds.
 File lengths (MBytes):  RWF=     88 Int=      0 D2E=      0 Chk=     15 Scr=      1
 Normal termination of Gaussian 16 at Mon Mar 14 19:29:52 2022.
