 Entering Gaussian System, Link 0=g16
 Input=4-Chlorobiphenyl.gjf
 Output=4-Chlorobiphenyl.log
 Initial command:
 /usr/local/g16/l1.exe "/scratch/pkc/Gau-3940.inp" -scrdir="/scratch/pkc/"
 Entering Link 1 = /usr/local/g16/l1.exe PID=      3941.
  
 Copyright (c) 1988-2017, Gaussian, Inc.  All Rights Reserved.
  
 This is part of the Gaussian(R) 16 program.  It is based on
 the Gaussian(R) 09 system (copyright 2009, Gaussian, Inc.),
 the Gaussian(R) 03 system (copyright 2003, Gaussian, Inc.),
 the Gaussian(R) 98 system (copyright 1998, Gaussian, Inc.),
 the Gaussian(R) 94 system (copyright 1995, Gaussian, Inc.),
 the Gaussian 92(TM) system (copyright 1992, Gaussian, Inc.),
 the Gaussian 90(TM) system (copyright 1990, Gaussian, Inc.),
 the Gaussian 88(TM) system (copyright 1988, Gaussian, Inc.),
 the Gaussian 86(TM) system (copyright 1986, Carnegie Mellon
 University), and the Gaussian 82(TM) system (copyright 1983,
 Carnegie Mellon University). Gaussian is a federally registered
 trademark of Gaussian, Inc.
  
 This software contains proprietary and confidential information,
 including trade secrets, belonging to Gaussian, Inc.
  
 This software is provided under written license and may be
 used, copied, transmitted, or stored only in accord with that
 written license.
  
 The following legend is applicable only to US Government
 contracts under FAR:
  
                    RESTRICTED RIGHTS LEGEND
  
 Use, reproduction and disclosure by the US Government is
 subject to restrictions as set forth in subparagraphs (a)
 and (c) of the Commercial Computer Software - Restricted
 Rights clause in FAR 52.227-19.
  
 Gaussian, Inc.
 340 Quinnipiac St., Bldg. 40, Wallingford CT 06492
  
  
 ---------------------------------------------------------------
 Warning -- This program may not be used in any manner that
 competes with the business of Gaussian, Inc. or will provide
 assistance to any competitor of Gaussian, Inc.  The licensee
 of this program is prohibited from giving any competitor of
 Gaussian, Inc. access to this program.  By using this program,
 the user acknowledges that Gaussian, Inc. is engaged in the
 business of creating and licensing software in the field of
 computational chemistry and represents and warrants to the
 licensee that it is not a competitor of Gaussian, Inc. and that
 it will not use this program in any manner prohibited above.
 ---------------------------------------------------------------
  

 Cite this work as:
 Gaussian 16, Revision B.01,
 M. J. Frisch, G. W. Trucks, H. B. Schlegel, G. E. Scuseria, 
 M. A. Robb, J. R. Cheeseman, G. Scalmani, V. Barone, 
 G. A. Petersson, H. Nakatsuji, X. Li, M. Caricato, A. V. Marenich, 
 J. Bloino, B. G. Janesko, R. Gomperts, B. Mennucci, H. P. Hratchian, 
 J. V. Ortiz, A. F. Izmaylov, J. L. Sonnenberg, D. Williams-Young, 
 F. Ding, F. Lipparini, F. Egidi, J. Goings, B. Peng, A. Petrone, 
 T. Henderson, D. Ranasinghe, V. G. Zakrzewski, J. Gao, N. Rega, 
 G. Zheng, W. Liang, M. Hada, M. Ehara, K. Toyota, R. Fukuda, 
 J. Hasegawa, M. Ishida, T. Nakajima, Y. Honda, O. Kitao, H. Nakai, 
 T. Vreven, K. Throssell, J. A. Montgomery, Jr., J. E. Peralta, 
 F. Ogliaro, M. J. Bearpark, J. J. Heyd, E. N. Brothers, K. N. Kudin, 
 V. N. Staroverov, T. A. Keith, R. Kobayashi, J. Normand, 
 K. Raghavachari, A. P. Rendell, J. C. Burant, S. S. Iyengar, 
 J. Tomasi, M. Cossi, J. M. Millam, M. Klene, C. Adamo, R. Cammi, 
 J. W. Ochterski, R. L. Martin, K. Morokuma, O. Farkas, 
 J. B. Foresman, and D. J. Fox, Gaussian, Inc., Wallingford CT, 2016.
 
 ******************************************
 Gaussian 16:  EM64L-G16RevB.01 20-Dec-2017
                14-Mar-2022 
 ******************************************
 %mem=10GB
 %nprocshared=4
 Will use up to    4 processors via shared memory.
 --------------------------------
 # opt b3lyp/6-311+g(d,p) scf=xqc
 --------------------------------
 1/18=20,19=15,26=3,38=1/1,3;
 2/9=110,12=2,17=6,18=5,40=1/2;
 3/5=4,6=6,7=111,11=2,25=1,30=1,71=1,74=-5/1,2,3;
 4//1;
 5/5=2,8=3,13=1,38=5/2,8;
 6/7=2,8=2,9=2,10=2,28=1/1;
 7//1,2,3,16;
 1/18=20,19=15,26=3/3(2);
 2/9=110/2;
 99//99;
 2/9=110/2;
 3/5=4,6=6,7=111,11=2,25=1,30=1,71=1,74=-5/1,2,3;
 4/5=5,16=3,69=1/1;
 5/5=2,8=3,13=1,38=5/2,8;
 7//1,2,3,16;
 1/18=20,19=15,26=3/3(-5);
 2/9=110/2;
 6/7=2,8=2,9=2,10=2,19=2,28=1/1;
 99/9=1/99;
 -------------------
 Title Card Required
 -------------------
 Symbolic Z-matrix:
 Charge =  0 Multiplicity = 1
 C                    -1.59649  -1.0962    0.00089 
 C                    -0.9724   -2.276    -0.42633 
 C                    -2.93065  -1.1246    0.42882 
 C                    -1.68247  -3.48419  -0.42562 
 H                     0.04626  -2.25432  -0.75307 
 C                    -0.81619   0.23148   0.0001 
 C                    -3.64072  -2.33278   0.42954 
 H                    -3.40716  -0.2238    0.75502 
 C                    -3.01663  -3.51258   0.00232 
 H                    -1.20597  -4.38499  -0.75181 
 C                     0.51797   0.25987  -0.42783 
 C                    -1.44028   1.41127   0.42732 
 H                    -4.65939  -2.35446   0.75627 
 Cl                   -3.90841  -5.02993   0.00321 
 C                     1.22804   1.46806  -0.42854 
 H                     0.99448  -0.64093  -0.75402 
 C                    -0.73021   2.61946   0.42661 
 H                    -2.45894   1.38959   0.75406 
 C                     0.60395   2.64785  -0.00132 
 H                     2.24671   1.48974  -0.75528 
 H                    -1.20672   3.52026   0.7528 
 H                     1.14611   3.57033  -0.00187 
 

 GradGradGradGradGradGradGradGradGradGradGradGradGradGradGradGradGradGrad
 Berny optimization.
 Initialization pass.
                           ----------------------------
                           !    Initial Parameters    !
                           ! (Angstroms and Degrees)  !
 --------------------------                            --------------------------
 ! Name  Definition              Value          Derivative Info.                !
 --------------------------------------------------------------------------------
 ! R1    R(1,2)                  1.4014         estimate D2E/DX2                !
 ! R2    R(1,3)                  1.4014         estimate D2E/DX2                !
 ! R3    R(1,6)                  1.54           estimate D2E/DX2                !
 ! R4    R(2,4)                  1.4014         estimate D2E/DX2                !
 ! R5    R(2,5)                  1.07           estimate D2E/DX2                !
 ! R6    R(3,7)                  1.4014         estimate D2E/DX2                !
 ! R7    R(3,8)                  1.07           estimate D2E/DX2                !
 ! R8    R(4,9)                  1.4014         estimate D2E/DX2                !
 ! R9    R(4,10)                 1.07           estimate D2E/DX2                !
 ! R10   R(6,11)                 1.4014         estimate D2E/DX2                !
 ! R11   R(6,12)                 1.4014         estimate D2E/DX2                !
 ! R12   R(7,9)                  1.4014         estimate D2E/DX2                !
 ! R13   R(7,13)                 1.07           estimate D2E/DX2                !
 ! R14   R(9,14)                 1.76           estimate D2E/DX2                !
 ! R15   R(11,15)                1.4014         estimate D2E/DX2                !
 ! R16   R(11,16)                1.07           estimate D2E/DX2                !
 ! R17   R(12,17)                1.4014         estimate D2E/DX2                !
 ! R18   R(12,18)                1.07           estimate D2E/DX2                !
 ! R19   R(15,19)                1.4014         estimate D2E/DX2                !
 ! R20   R(15,20)                1.07           estimate D2E/DX2                !
 ! R21   R(17,19)                1.4014         estimate D2E/DX2                !
 ! R22   R(17,21)                1.07           estimate D2E/DX2                !
 ! R23   R(19,22)                1.07           estimate D2E/DX2                !
 ! A1    A(2,1,3)              120.0            estimate D2E/DX2                !
 ! A2    A(2,1,6)              120.0            estimate D2E/DX2                !
 ! A3    A(3,1,6)              120.0            estimate D2E/DX2                !
 ! A4    A(1,2,4)              120.0            estimate D2E/DX2                !
 ! A5    A(1,2,5)              120.0            estimate D2E/DX2                !
 ! A6    A(4,2,5)              120.0            estimate D2E/DX2                !
 ! A7    A(1,3,7)              120.0            estimate D2E/DX2                !
 ! A8    A(1,3,8)              120.0            estimate D2E/DX2                !
 ! A9    A(7,3,8)              120.0            estimate D2E/DX2                !
 ! A10   A(2,4,9)              120.0            estimate D2E/DX2                !
 ! A11   A(2,4,10)             120.0            estimate D2E/DX2                !
 ! A12   A(9,4,10)             120.0            estimate D2E/DX2                !
 ! A13   A(1,6,11)             120.0            estimate D2E/DX2                !
 ! A14   A(1,6,12)             120.0            estimate D2E/DX2                !
 ! A15   A(11,6,12)            120.0            estimate D2E/DX2                !
 ! A16   A(3,7,9)              120.0            estimate D2E/DX2                !
 ! A17   A(3,7,13)             120.0            estimate D2E/DX2                !
 ! A18   A(9,7,13)             120.0            estimate D2E/DX2                !
 ! A19   A(4,9,7)              120.0            estimate D2E/DX2                !
 ! A20   A(4,9,14)             120.0            estimate D2E/DX2                !
 ! A21   A(7,9,14)             120.0            estimate D2E/DX2                !
 ! A22   A(6,11,15)            120.0            estimate D2E/DX2                !
 ! A23   A(6,11,16)            120.0            estimate D2E/DX2                !
 ! A24   A(15,11,16)           120.0            estimate D2E/DX2                !
 ! A25   A(6,12,17)            120.0            estimate D2E/DX2                !
 ! A26   A(6,12,18)            120.0            estimate D2E/DX2                !
 ! A27   A(17,12,18)           120.0            estimate D2E/DX2                !
 ! A28   A(11,15,19)           120.0            estimate D2E/DX2                !
 ! A29   A(11,15,20)           120.0            estimate D2E/DX2                !
 ! A30   A(19,15,20)           120.0            estimate D2E/DX2                !
 ! A31   A(12,17,19)           120.0            estimate D2E/DX2                !
 ! A32   A(12,17,21)           120.0            estimate D2E/DX2                !
 ! A33   A(19,17,21)           120.0            estimate D2E/DX2                !
 ! A34   A(15,19,17)           120.0            estimate D2E/DX2                !
 ! A35   A(15,19,22)           120.0            estimate D2E/DX2                !
 ! A36   A(17,19,22)           120.0            estimate D2E/DX2                !
 ! D1    D(3,1,2,4)              0.0            estimate D2E/DX2                !
 ! D2    D(3,1,2,5)            180.0            estimate D2E/DX2                !
 ! D3    D(6,1,2,4)           -179.9999         estimate D2E/DX2                !
 ! D4    D(6,1,2,5)              0.0            estimate D2E/DX2                !
 ! D5    D(2,1,3,7)              0.0            estimate D2E/DX2                !
 ! D6    D(2,1,3,8)            179.9999         estimate D2E/DX2                !
 ! D7    D(6,1,3,7)           -180.0            estimate D2E/DX2                !
 ! D8    D(6,1,3,8)             -0.0001         estimate D2E/DX2                !
 ! D9    D(2,1,6,11)            -0.0001         estimate D2E/DX2                !
 ! D10   D(2,1,6,12)           180.0            estimate D2E/DX2                !
 ! D11   D(3,1,6,11)           179.9999         estimate D2E/DX2                !
 ! D12   D(3,1,6,12)             0.0            estimate D2E/DX2                !
 ! D13   D(1,2,4,9)              0.0            estimate D2E/DX2                !
 ! D14   D(1,2,4,10)           180.0            estimate D2E/DX2                !
 ! D15   D(5,2,4,9)           -180.0            estimate D2E/DX2                !
 ! D16   D(5,2,4,10)             0.0            estimate D2E/DX2                !
 ! D17   D(1,3,7,9)             -0.0001         estimate D2E/DX2                !
 ! D18   D(1,3,7,13)          -179.9999         estimate D2E/DX2                !
 ! D19   D(8,3,7,9)           -180.0            estimate D2E/DX2                !
 ! D20   D(8,3,7,13)             0.0002         estimate D2E/DX2                !
 ! D21   D(2,4,9,7)              0.0            estimate D2E/DX2                !
 ! D22   D(2,4,9,14)           179.9999         estimate D2E/DX2                !
 ! D23   D(10,4,9,7)           180.0            estimate D2E/DX2                !
 ! D24   D(10,4,9,14)           -0.0001         estimate D2E/DX2                !
 ! D25   D(1,6,11,15)         -180.0            estimate D2E/DX2                !
 ! D26   D(1,6,11,16)            0.0002         estimate D2E/DX2                !
 ! D27   D(12,6,11,15)           0.0            estimate D2E/DX2                !
 ! D28   D(12,6,11,16)        -179.9998         estimate D2E/DX2                !
 ! D29   D(1,6,12,17)          179.9999         estimate D2E/DX2                !
 ! D30   D(1,6,12,18)           -0.0001         estimate D2E/DX2                !
 ! D31   D(11,6,12,17)          -0.0001         estimate D2E/DX2                !
 ! D32   D(11,6,12,18)         180.0            estimate D2E/DX2                !
 ! D33   D(3,7,9,4)              0.0001         estimate D2E/DX2                !
 ! D34   D(3,7,9,14)          -179.9998         estimate D2E/DX2                !
 ! D35   D(13,7,9,4)           179.9999         estimate D2E/DX2                !
 ! D36   D(13,7,9,14)            0.0            estimate D2E/DX2                !
 ! D37   D(6,11,15,19)           0.0002         estimate D2E/DX2                !
 ! D38   D(6,11,15,20)         179.9999         estimate D2E/DX2                !
 ! D39   D(16,11,15,19)        180.0            estimate D2E/DX2                !
 ! D40   D(16,11,15,20)         -0.0003         estimate D2E/DX2                !
 ! D41   D(6,12,17,19)           0.0            estimate D2E/DX2                !
 ! D42   D(6,12,17,21)        -179.9998         estimate D2E/DX2                !
 ! D43   D(18,12,17,19)        180.0            estimate D2E/DX2                !
 ! D44   D(18,12,17,21)          0.0001         estimate D2E/DX2                !
 ! D45   D(11,15,19,17)         -0.0002         estimate D2E/DX2                !
 ! D46   D(11,15,19,22)        179.9999         estimate D2E/DX2                !
 ! D47   D(20,15,19,17)        180.0            estimate D2E/DX2                !
 ! D48   D(20,15,19,22)          0.0002         estimate D2E/DX2                !
 ! D49   D(12,17,19,15)          0.0002         estimate D2E/DX2                !
 ! D50   D(12,17,19,22)        180.0            estimate D2E/DX2                !
 ! D51   D(21,17,19,15)        180.0            estimate D2E/DX2                !
 ! D52   D(21,17,19,22)         -0.0002         estimate D2E/DX2                !
 --------------------------------------------------------------------------------
 Trust Radius=3.00D-01 FncErr=1.00D-07 GrdErr=1.00D-06 EigMax=2.50D+02 EigMin=1.00D-04
 Number of steps in this run=    121 maximum allowed number of steps=    132.
 GradGradGradGradGradGradGradGradGradGradGradGradGradGradGradGradGradGrad

                          Input orientation:                          
 ---------------------------------------------------------------------
 Center     Atomic      Atomic             Coordinates (Angstroms)
 Number     Number       Type             X           Y           Z
 ---------------------------------------------------------------------
      1          6           0       -1.596490   -1.096203    0.000889
      2          6           0       -0.972400   -2.275999   -0.426330
      3          6           0       -2.930652   -1.124596    0.428823
      4          6           0       -1.682472   -3.484187   -0.425616
      5          1           0        0.046262   -2.254320   -0.753068
      6          6           0       -0.816192    0.231476    0.000103
      7          6           0       -3.640724   -2.332785    0.429538
      8          1           0       -3.407158   -0.223797    0.755017
      9          6           0       -3.016634   -3.512580    0.002318
     10          1           0       -1.205966   -4.384987   -0.751808
     11          6           0        0.517971    0.259869   -0.427830
     12          6           0       -1.440282    1.411272    0.427322
     13          1           0       -4.659387   -2.354463    0.756274
     14         17           0       -3.908406   -5.029927    0.003212
     15          6           0        1.228043    1.468058   -0.428545
     16          1           0        0.994477   -0.640930   -0.754023
     17          6           0       -0.730210    2.619460    0.426608
     18          1           0       -2.458945    1.389593    0.754058
     19          6           0        0.603953    2.647853   -0.001323
     20          1           0        2.246705    1.489736   -0.755280
     21          1           0       -1.206716    3.520260    0.752802
     22          1           0        1.146109    3.570331   -0.001868
 ---------------------------------------------------------------------
                    Distance matrix (angstroms):
                    1          2          3          4          5
     1  C    0.000000
     2  C    1.401400   0.000000
     3  C    1.401400   2.427296   0.000000
     4  C    2.427296   1.401400   2.802800   0.000000
     5  H    2.146700   1.070000   3.396345   2.146700   0.000000
     6  C    1.540000   2.548270   2.548270   3.838989   2.736837
     7  C    2.427296   2.802800   1.401400   2.427296   3.872800
     8  H    2.146700   3.396345   1.070000   3.872800   4.280590
     9  C    2.802800   2.427296   2.427296   1.401400   3.396345
    10  H    3.396345   2.146700   3.872800   1.070000   2.471400
    11  C    2.548270   2.941400   3.813607   4.342800   2.578650
    12  C    2.548270   3.813607   2.941400   4.975106   4.127917
    13  H    3.396345   3.872800   2.146700   3.396345   4.942800
    14  Cl   4.562800   4.048303   4.048303   2.743718   4.890332
    15  C    3.838989   4.342800   4.975106   5.744200   3.918930
    16  H    2.736837   2.578650   4.127917   3.918930   1.871400
    17  C    3.838989   4.975106   4.342800   6.235992   5.074276
    18  H    2.736837   4.127917   2.578650   5.074276   4.671787
    19  C    4.342800   5.187469   5.187469   6.558176   4.990735
    20  H    4.693509   4.965039   5.919617   6.347206   4.342800
    21  H    4.693509   5.919617   4.965039   7.118798   6.097816
    22  H    5.412800   6.232802   6.232802   7.612271   5.974992
                    6          7          8          9         10
     6  C    0.000000
     7  C    3.838989   0.000000
     8  H    2.736837   2.146700   0.000000
     9  C    4.342800   1.401400   3.396345   0.000000
    10  H    4.693509   3.396345   4.942800   2.146700   0.000000
    11  C    1.401400   4.975106   4.127917   5.187469   4.965039
    12  C    1.401400   4.342800   2.578650   5.187469   5.919617
    13  H    4.693509   1.070000   2.471400   2.146700   4.280590
    14  Cl   6.102800   2.743718   4.890332   1.760000   2.879094
    15  C    2.427296   6.235992   5.074276   6.558176   6.347206
    16  H    2.146700   5.074276   4.671787   4.990735   4.342800
    17  C    2.427296   5.744200   3.918930   6.558176   7.118798
    18  H    2.146700   3.918930   1.871400   4.990735   6.097816
    19  C    2.802800   6.558176   4.990735   7.145600   7.300676
    20  H    3.396345   7.118798   6.097816   7.300676   6.814200
    21  H    3.396345   6.347206   4.342800   7.300676   8.047159
    22  H    3.872800   7.612271   5.974992   8.215600   8.329571
                   11         12         13         14         15
    11  C    0.000000
    12  C    2.427296   0.000000
    13  H    5.919617   4.965039   0.000000
    14  Cl   6.910901   6.910901   2.879094   0.000000
    15  C    1.401400   2.802800   7.118798   8.294174   0.000000
    16  H    1.070000   3.396345   6.097816   6.623817   2.146700
    17  C    2.802800   1.401400   6.347206   8.294174   2.427296
    18  H    3.396345   1.070000   4.342800   6.623817   3.872800
    19  C    2.427296   2.427296   7.300676   8.905600   1.401400
    20  H    2.146700   3.872800   8.047159   8.998151   1.070000
    21  H    3.872800   2.146700   6.814200   8.998151   3.396345
    22  H    3.396345   3.396345   8.329571   9.975600   2.146700
                   16         17         18         19         20
    16  H    0.000000
    17  C    3.872800   0.000000
    18  H    4.280590   2.146700   0.000000
    19  C    3.396345   1.401400   3.396345   0.000000
    20  H    2.471400   3.396345   4.942800   2.146700   0.000000
    21  H    4.942800   1.070000   2.471400   2.146700   4.280590
    22  H    4.280590   2.146700   4.280590   1.070000   2.471400
                   21         22
    21  H    0.000000
    22  H    2.471400   0.000000
 Stoichiometry    C12H9Cl
 Framework group  C1[X(C12H9Cl)]
 Deg. of freedom    60
 Full point group                 C1      NOp   1
 Largest Abelian subgroup         C1      NOp   1
 Largest concise Abelian subgroup C1      NOp   1
                         Standard orientation:                         
 ---------------------------------------------------------------------
 Center     Atomic      Atomic             Coordinates (Angstroms)
 Number     Number       Type             X           Y           Z
 ---------------------------------------------------------------------
      1          6           0       -0.107702    0.000000    0.000001
      2          6           0        0.592998    1.213648    0.000001
      3          6           0        0.592998   -1.213648    0.000001
      4          6           0        1.994398    1.213648    0.000001
      5          1           0        0.057998    2.140295    0.000000
      6          6           0       -1.647702    0.000000   -0.000001
      7          6           0        1.994398   -1.213648    0.000002
      8          1           0        0.057998   -2.140295    0.000003
      9          6           0        2.695098    0.000000    0.000001
     10          1           0        2.529398    2.140295    0.000001
     11          6           0       -2.348402    1.213648   -0.000000
     12          6           0       -2.348402   -1.213648   -0.000002
     13          1           0        2.529398   -2.140295    0.000001
     14         17           0        4.455098    0.000000   -0.000002
     15          6           0       -3.749802    1.213648   -0.000001
     16          1           0       -1.813402    2.140295   -0.000002
     17          6           0       -3.749802   -1.213648   -0.000001
     18          1           0       -1.813402   -2.140295   -0.000003
     19          6           0       -4.450502    0.000000    0.000001
     20          1           0       -4.284802    2.140295    0.000001
     21          1           0       -4.284802   -2.140295    0.000001
     22          1           0       -5.520502    0.000000    0.000001
 ---------------------------------------------------------------------
 Rotational constants (GHZ):           2.8338578           0.2953520           0.2674751
 Standard basis: 6-311+G(d,p) (5D, 7F)
 There are   361 symmetry adapted cartesian basis functions of A   symmetry.
 There are   348 symmetry adapted basis functions of A   symmetry.
   348 basis functions,   557 primitive gaussians,   361 cartesian basis functions
    49 alpha electrons       49 beta electrons
       nuclear repulsion energy       753.0031731257 Hartrees.
 NAtoms=   22 NActive=   22 NUniq=   22 SFac= 1.00D+00 NAtFMM=   60 NAOKFM=F Big=F
 Integral buffers will be    131072 words long.
 Raffenetti 2 integral format.
 Two-electron integral symmetry is turned on.
 One-electron integrals computed using PRISM.
 NBasis=   348 RedAO= T EigKep=  1.68D-06  NBF=   348
 NBsUse=   344 1.00D-06 EigRej=  9.29D-07 NBFU=   344
 ExpMin= 4.38D-02 ExpMax= 1.06D+05 ExpMxC= 3.62D+03 IAcc=3 IRadAn=         5 AccDes= 0.00D+00
 Harris functional with IExCor=  402 and IRadAn=       5 diagonalized for initial guess.
 HarFok:  IExCor=  402 AccDes= 0.00D+00 IRadAn=         5 IDoV= 1 UseB2=F ITyADJ=14
 ICtDFT=  3500011 ScaDFX=  1.000000  1.000000  1.000000  1.000000
 FoFCou: FMM=F IPFlag=           0 FMFlag=      100000 FMFlg1=           0
         NFxFlg=           0 DoJE=T BraDBF=F KetDBF=T FulRan=T
         wScrn=  0.000000 ICntrl=       500 IOpCl=  0 I1Cent=   200000004 NGrid=           0
         NMat0=    1 NMatS0=      1 NMatT0=    0 NMatD0=    1 NMtDS0=    0 NMtDT0=    0
 Petite list used in FoFCou.
 Requested convergence on RMS density matrix=1.00D-08 within  32 cycles.
 Requested convergence on MAX density matrix=1.00D-06.
 Requested convergence on             energy=1.00D-06.
 No special actions if energy rises.
 SCF Done:  E(RB3LYP) =  -923.037900277     A.U. after   14 cycles
            NFock= 14  Conv=0.69D-08     -V/T= 2.0036
 QCSCF skips out because SCF is already converged.

 **********************************************************************

            Population analysis using the SCF Density.

 **********************************************************************

 Orbital symmetries:
       Occupied  (A) (A) (A) (A) (A) (A) (A) (A) (A) (A) (A) (A)
                 (A) (A) (A) (A) (A) (A) (A) (A) (A) (A) (A) (A)
                 (A) (A) (A) (A) (A) (A) (A) (A) (A) (A) (A) (A)
                 (A) (A) (A) (A) (A) (A) (A) (A) (A) (A) (A) (A)
                 (A)
       Virtual   (A) (A) (A) (A) (A) (A) (A) (A) (A) (A) (A) (A)
                 (A) (A) (A) (A) (A) (A) (A) (A) (A) (A) (A) (A)
                 (A) (A) (A) (A) (A) (A) (A) (A) (A) (A) (A) (A)
                 (A) (A) (A) (A) (A) (A) (A) (A) (A) (A) (A) (A)
                 (A) (A) (A) (A) (A) (A) (A) (A) (A) (A) (A) (A)
                 (A) (A) (A) (A) (A) (A) (A) (A) (A) (A) (A) (A)
                 (A) (A) (A) (A) (A) (A) (A) (A) (A) (A) (A) (A)
                 (A) (A) (A) (A) (A) (A) (A) (A) (A) (A) (A) (A)
                 (A) (A) (A) (A) (A) (A) (A) (A) (A) (A) (A) (A)
                 (A) (A) (A) (A) (A) (A) (A) (A) (A) (A) (A) (A)
                 (A) (A) (A) (A) (A) (A) (A) (A) (A) (A) (A) (A)
                 (A) (A) (A) (A) (A) (A) (A) (A) (A) (A) (A) (A)
                 (A) (A) (A) (A) (A) (A) (A) (A) (A) (A) (A) (A)
                 (A) (A) (A) (A) (A) (A) (A) (A) (A) (A) (A) (A)
                 (A) (A) (A) (A) (A) (A) (A) (A) (A) (A) (A) (A)
                 (A) (A) (A) (A) (A) (A) (A) (A) (A) (A) (A) (A)
                 (A) (A) (A) (A) (A) (A) (A) (A) (A) (A) (A) (A)
                 (A) (A) (A) (A) (A) (A) (A) (A) (A) (A) (A) (A)
                 (A) (A) (A) (A) (A) (A) (A) (A) (A) (A) (A) (A)
                 (A) (A) (A) (A) (A) (A) (A) (A) (A) (A) (A) (A)
                 (A) (A) (A) (A) (A) (A) (A) (A) (A) (A) (A) (A)
                 (A) (A) (A) (A) (A) (A) (A) (A) (A) (A) (A) (A)
                 (A) (A) (A) (A) (A) (A) (A) (A) (A) (A) (A) (A)
                 (A) (A) (A) (A) (A) (A) (A) (A) (A) (A) (A) (A)
                 (A) (A) (A) (A) (A) (A) (A)
 The electronic state is 1-A.
 Alpha  occ. eigenvalues -- -101.55809 -10.24625 -10.20394 -10.20087 -10.19627
 Alpha  occ. eigenvalues --  -10.19626 -10.19293 -10.19291 -10.18643 -10.18640
 Alpha  occ. eigenvalues --  -10.18533 -10.18533 -10.18392  -9.47250  -7.23711
 Alpha  occ. eigenvalues --   -7.22734  -7.22703  -0.89896  -0.87178  -0.84385
 Alpha  occ. eigenvalues --   -0.77751  -0.77177  -0.75783  -0.72529  -0.64566
 Alpha  occ. eigenvalues --   -0.62950  -0.60874  -0.59223  -0.54959  -0.50529
 Alpha  occ. eigenvalues --   -0.49358  -0.48817  -0.45840  -0.45355  -0.45059
 Alpha  occ. eigenvalues --   -0.43690  -0.42968  -0.40842  -0.38705  -0.38286
 Alpha  occ. eigenvalues --   -0.38270  -0.35293  -0.35285  -0.34330  -0.32058
 Alpha  occ. eigenvalues --   -0.28539  -0.27571  -0.26561  -0.23410
 Alpha virt. eigenvalues --   -0.05532  -0.04222  -0.01715  -0.00455   0.00626
 Alpha virt. eigenvalues --    0.00898   0.01140   0.01219   0.02932   0.03071
 Alpha virt. eigenvalues --    0.04514   0.04909   0.05191   0.05405   0.06550
 Alpha virt. eigenvalues --    0.06951   0.07612   0.07807   0.07865   0.08545
 Alpha virt. eigenvalues --    0.09919   0.11101   0.11260   0.11360   0.11767
 Alpha virt. eigenvalues --    0.11947   0.12124   0.14236   0.14503   0.14578
 Alpha virt. eigenvalues --    0.14737   0.14960   0.15576   0.15696   0.16133
 Alpha virt. eigenvalues --    0.16342   0.16359   0.16823   0.17961   0.18887
 Alpha virt. eigenvalues --    0.18962   0.19299   0.19880   0.20081   0.20677
 Alpha virt. eigenvalues --    0.20700   0.21095   0.21203   0.21366   0.21560
 Alpha virt. eigenvalues --    0.22939   0.23795   0.23863   0.24136   0.24470
 Alpha virt. eigenvalues --    0.25705   0.25883   0.27142   0.27454   0.27963
 Alpha virt. eigenvalues --    0.28456   0.29568   0.30324   0.30789   0.30988
 Alpha virt. eigenvalues --    0.32022   0.33253   0.34292   0.35240   0.35293
 Alpha virt. eigenvalues --    0.37615   0.38868   0.39904   0.43485   0.44731
 Alpha virt. eigenvalues --    0.45487   0.46376   0.48309   0.49139   0.50051
 Alpha virt. eigenvalues --    0.52060   0.52099   0.52517   0.53972   0.54083
 Alpha virt. eigenvalues --    0.54496   0.54616   0.54774   0.54999   0.56748
 Alpha virt. eigenvalues --    0.57466   0.57873   0.59117   0.60387   0.61510
 Alpha virt. eigenvalues --    0.61534   0.62236   0.63779   0.64596   0.66128
 Alpha virt. eigenvalues --    0.66559   0.67364   0.67787   0.68379   0.68416
 Alpha virt. eigenvalues --    0.68568   0.70489   0.71516   0.73786   0.74191
 Alpha virt. eigenvalues --    0.75339   0.77802   0.79423   0.81438   0.82054
 Alpha virt. eigenvalues --    0.82359   0.83180   0.83274   0.83587   0.83905
 Alpha virt. eigenvalues --    0.85958   0.86247   0.87988   0.88164   0.89168
 Alpha virt. eigenvalues --    0.89436   0.90775   0.92504   0.93576   0.94360
 Alpha virt. eigenvalues --    0.94513   0.94871   0.95921   0.97080   0.97844
 Alpha virt. eigenvalues --    1.01229   1.02223   1.03245   1.05049   1.06155
 Alpha virt. eigenvalues --    1.06702   1.06814   1.07692   1.09198   1.10571
 Alpha virt. eigenvalues --    1.12141   1.13307   1.14459   1.15059   1.20663
 Alpha virt. eigenvalues --    1.26380   1.28374   1.29314   1.33109   1.33889
 Alpha virt. eigenvalues --    1.45334   1.45424   1.46525   1.46674   1.49686
 Alpha virt. eigenvalues --    1.51789   1.52632   1.54513   1.54847   1.55890
 Alpha virt. eigenvalues --    1.56024   1.56366   1.57046   1.61645   1.62121
 Alpha virt. eigenvalues --    1.63692   1.64004   1.67183   1.68097   1.70468
 Alpha virt. eigenvalues --    1.70848   1.71254   1.74649   1.75540   1.78448
 Alpha virt. eigenvalues --    1.79395   1.80453   1.84215   1.84415   1.85201
 Alpha virt. eigenvalues --    1.90007   1.90155   1.91796   1.92581   1.93151
 Alpha virt. eigenvalues --    1.94178   1.94732   1.95407   1.96251   1.96722
 Alpha virt. eigenvalues --    1.98007   2.00077   2.02423   2.05004   2.05158
 Alpha virt. eigenvalues --    2.06269   2.08972   2.09135   2.12547   2.20953
 Alpha virt. eigenvalues --    2.22526   2.27100   2.27959   2.27998   2.28229
 Alpha virt. eigenvalues --    2.35379   2.35632   2.37466   2.37543   2.40057
 Alpha virt. eigenvalues --    2.41378   2.43963   2.44838   2.47080   2.53427
 Alpha virt. eigenvalues --    2.58087   2.61856   2.62309   2.63016   2.63508
 Alpha virt. eigenvalues --    2.65574   2.66834   2.68787   2.69913   2.69949
 Alpha virt. eigenvalues --    2.70847   2.72865   2.73499   2.73948   2.75083
 Alpha virt. eigenvalues --    2.75233   2.76043   2.78595   2.80263   2.83132
 Alpha virt. eigenvalues --    2.83249   2.83470   2.85444   2.86203   2.93088
 Alpha virt. eigenvalues --    2.93439   2.93683   2.94539   2.95778   3.06680
 Alpha virt. eigenvalues --    3.07699   3.09853   3.10766   3.16191   3.20552
 Alpha virt. eigenvalues --    3.21246   3.32495   3.35926   3.37786   3.41135
 Alpha virt. eigenvalues --    3.47189   3.52363   3.52540   3.56525   3.60254
 Alpha virt. eigenvalues --    3.65183   3.71654   3.80909   3.99211   4.03169
 Alpha virt. eigenvalues --    4.04990   4.13877   4.14175   4.18852   4.23222
 Alpha virt. eigenvalues --    4.49253   4.81018   4.84998   9.77613  23.51873
 Alpha virt. eigenvalues --   23.67715  23.86774  23.93186  23.94359  23.96733
 Alpha virt. eigenvalues --   24.01601  24.05975  24.06935  24.08165  24.14536
 Alpha virt. eigenvalues --   24.17156  25.82724  26.12479  26.60660 215.76658
          Condensed to atoms (all electrons):
               1          2          3          4          5          6
     1  C    8.705992  -0.361114  -0.361114  -0.161837   0.046525   1.677557
     2  C   -0.361114  11.510795  -2.023523   1.884436   0.338899  -0.747112
     3  C   -0.361114  -2.023523  11.510794  -2.546203  -0.013043  -0.747112
     4  C   -0.161837   1.884436  -2.546203  10.350914  -0.096088  -0.363582
     5  H    0.046525   0.338899  -0.013043  -0.096088   0.557569   0.043244
     6  C    1.677557  -0.747112  -0.747112  -0.363582   0.043244   6.728303
     7  C   -0.161837  -2.546203   1.884436  -2.991778  -0.010795  -0.363583
     8  H    0.046525  -0.013043   0.338899  -0.010795  -0.000120   0.043244
     9  C   -2.738453  -1.034595  -1.034595   0.063351  -0.036285  -0.725063
    10  H    0.020053  -0.099152   0.001363   0.336951  -0.008029   0.000231
    11  C   -0.402743   3.039264  -2.511428   0.412724   0.005565  -0.524663
    12  C   -0.402744  -2.511428   3.039264  -0.466510   0.023010  -0.524663
    13  H    0.020053   0.001363  -0.099152   0.041347   0.000083   0.000231
    14  Cl  -0.336355   0.213514   0.213514   0.090538  -0.000361  -0.048412
    15  C   -0.121050  -1.147591  -0.014535   0.003472   0.021019   0.481252
    16  H    0.025409   0.030953   0.016495  -0.003324   0.001612   0.005565
    17  C   -0.121050  -0.014535  -1.147591   0.101333   0.003100   0.481252
    18  H    0.025409   0.016495   0.030953   0.001721  -0.000102   0.005565
    19  C   -0.158689   0.020111   0.020111  -0.025592  -0.001437  -0.385591
    20  H   -0.001872   0.008559  -0.000891   0.000334  -0.000002   0.019873
    21  H   -0.001872  -0.000891   0.008559  -0.000333   0.000001   0.019873
    22  H    0.003242   0.001050   0.001050   0.000252  -0.000001   0.042698
               7          8          9         10         11         12
     1  C   -0.161837   0.046525  -2.738453   0.020053  -0.402743  -0.402744
     2  C   -2.546203  -0.013043  -1.034595  -0.099152   3.039264  -2.511428
     3  C    1.884436   0.338899  -1.034595   0.001363  -2.511428   3.039264
     4  C   -2.991778  -0.010795   0.063351   0.336951   0.412724  -0.466510
     5  H   -0.010795  -0.000120  -0.036285  -0.008029   0.005565   0.023010
     6  C   -0.363583   0.043244  -0.725063   0.000231  -0.524663  -0.524663
     7  C   10.350914  -0.096088   0.063350   0.041347  -0.466510   0.412724
     8  H   -0.096088   0.557569  -0.036285   0.000083   0.023010   0.005565
     9  C    0.063350  -0.036285  12.378184   0.047802  -0.139238  -0.139238
    10  H    0.041347   0.000083   0.047802   0.518253   0.008745  -0.000490
    11  C   -0.466510   0.023010  -0.139238   0.008745  11.976356  -3.250791
    12  C    0.412724   0.005565  -0.139238  -0.000490  -3.250791  11.976356
    13  H    0.336951  -0.008029   0.047802  -0.000353  -0.000490   0.008745
    14  Cl   0.090538  -0.000361  -0.974736  -0.011549  -0.022362  -0.022362
    15  C    0.101333   0.003100  -0.247146  -0.000615  -2.657913   0.409547
    16  H    0.001721  -0.000102   0.002580   0.000043   0.394742  -0.007503
    17  C    0.003472   0.021019  -0.247146   0.000141   0.409547  -2.657914
    18  H   -0.003324   0.001612   0.002580   0.000001  -0.007503   0.394742
    19  C   -0.025592  -0.001437  -0.000644   0.000124   0.117581   0.117582
    20  H   -0.000333   0.000001   0.000111   0.000000  -0.032196  -0.002644
    21  H    0.000334  -0.000002   0.000111   0.000000  -0.002644  -0.032196
    22  H    0.000252  -0.000001  -0.000000  -0.000000  -0.037286  -0.037286
              13         14         15         16         17         18
     1  C    0.020053  -0.336355  -0.121050   0.025409  -0.121050   0.025409
     2  C    0.001363   0.213514  -1.147591   0.030953  -0.014535   0.016495
     3  C   -0.099152   0.213514  -0.014535   0.016495  -1.147591   0.030953
     4  C    0.041347   0.090538   0.003472  -0.003324   0.101333   0.001721
     5  H    0.000083  -0.000361   0.021019   0.001612   0.003100  -0.000102
     6  C    0.000231  -0.048412   0.481252   0.005565   0.481252   0.005565
     7  C    0.336951   0.090538   0.101333   0.001721   0.003472  -0.003324
     8  H   -0.008029  -0.000361   0.003100  -0.000102   0.021019   0.001612
     9  C    0.047802  -0.974736  -0.247146   0.002580  -0.247146   0.002580
    10  H   -0.000353  -0.011549  -0.000615   0.000043   0.000141   0.000001
    11  C   -0.000490  -0.022362  -2.657913   0.394742   0.409547  -0.007503
    12  C    0.008745  -0.022362   0.409547  -0.007503  -2.657914   0.394742
    13  H    0.518253  -0.011549   0.000141   0.000001  -0.000615   0.000043
    14  Cl  -0.011549  17.429619  -0.006927   0.000013  -0.006927   0.000013
    15  C    0.000141  -0.006927   8.267455  -0.120706   0.587528  -0.016549
    16  H    0.000001   0.000013  -0.120706   0.565973  -0.016549  -0.000080
    17  C   -0.000615  -0.006927   0.587528  -0.016549   8.267456  -0.120706
    18  H    0.000043   0.000013  -0.016549  -0.000080  -0.120706   0.565973
    19  C    0.000124   0.000049   0.458056  -0.007352   0.458056  -0.007352
    20  H    0.000000  -0.000000   0.371760  -0.007444  -0.012286   0.000094
    21  H    0.000000  -0.000000  -0.012286   0.000094   0.371760  -0.007444
    22  H   -0.000000   0.000000   0.004772  -0.000291   0.004772  -0.000291
              19         20         21         22
     1  C   -0.158689  -0.001872  -0.001872   0.003242
     2  C    0.020111   0.008559  -0.000891   0.001050
     3  C    0.020111  -0.000891   0.008559   0.001050
     4  C   -0.025592   0.000334  -0.000333   0.000252
     5  H   -0.001437  -0.000002   0.000001  -0.000001
     6  C   -0.385591   0.019873   0.019873   0.042698
     7  C   -0.025592  -0.000333   0.000334   0.000252
     8  H   -0.001437   0.000001  -0.000002  -0.000001
     9  C   -0.000644   0.000111   0.000111  -0.000000
    10  H    0.000124   0.000000   0.000000  -0.000000
    11  C    0.117581  -0.032196  -0.002644  -0.037286
    12  C    0.117582  -0.002644  -0.032196  -0.037286
    13  H    0.000124   0.000000   0.000000  -0.000000
    14  Cl   0.000049  -0.000000  -0.000000   0.000000
    15  C    0.458056   0.371760  -0.012286   0.004772
    16  H   -0.007352  -0.007444   0.000094  -0.000291
    17  C    0.458056  -0.012286   0.371760   0.004772
    18  H   -0.007352   0.000094  -0.007444  -0.000291
    19  C    5.241056  -0.001203  -0.001203   0.366691
    20  H   -0.001203   0.539186  -0.000289  -0.007370
    21  H   -0.001203  -0.000289   0.539186  -0.007370
    22  H    0.366691  -0.007370  -0.007370   0.538144
 Mulliken charges:
               1
     1  C    0.759966
     2  C   -0.566250
     3  C   -0.566250
     4  C   -0.621329
     5  H    0.125635
     6  C    0.880893
     7  C   -0.621329
     8  H    0.125635
     9  C    0.747553
    10  H    0.145050
    11  C   -0.331768
    12  C   -0.331768
    13  H    0.145050
    14  Cl   0.404102
    15  C   -0.364119
    16  H    0.118151
    17  C   -0.364119
    18  H    0.118151
    19  C   -0.183448
    20  H    0.126612
    21  H    0.126612
    22  H    0.126975
 Sum of Mulliken charges =  -0.00000
 Mulliken charges with hydrogens summed into heavy atoms:
               1
     1  C    0.759966
     2  C   -0.440616
     3  C   -0.440616
     4  C   -0.476280
     6  C    0.880893
     7  C   -0.476280
     9  C    0.747553
    11  C   -0.213617
    12  C   -0.213617
    14  Cl   0.404102
    15  C   -0.237507
    17  C   -0.237507
    19  C   -0.056474
 Electronic spatial extent (au):  <R**2>=           3743.5346
 Charge=             -0.0000 electrons
 Dipole moment (field-independent basis, Debye):
    X=             -2.0468    Y=              0.0000    Z=              0.0000  Tot=              2.0468
 Quadrupole moment (field-independent basis, Debye-Ang):
   XX=            -84.1588   YY=            -72.6750   ZZ=            -89.6389
   XY=             -0.0000   XZ=             -0.0000   YZ=             -0.0000
 Traceless Quadrupole moment (field-independent basis, Debye-Ang):
   XX=             -2.0013   YY=              9.4826   ZZ=             -7.4813
   XY=             -0.0000   XZ=             -0.0000   YZ=             -0.0000
 Octapole moment (field-independent basis, Debye-Ang**2):
  XXX=            -49.1817  YYY=             -0.0000  ZZZ=             -0.0000  XYY=              0.8187
  XXY=              0.0000  XXZ=              0.0000  XZZ=             14.5174  YZZ=             -0.0000
  YYZ=             -0.0000  XYZ=              0.0000
 Hexadecapole moment (field-independent basis, Debye-Ang**3):
 XXXX=          -4276.4913 YYYY=           -553.5661 ZZZZ=           -107.6526 XXXY=             -0.0000
 XXXZ=             -0.0005 YYYX=              0.0000 YYYZ=             -0.0000 ZZZX=             -0.0001
 ZZZY=             -0.0000 XXYY=           -779.1379 XXZZ=           -818.9809 YYZZ=           -132.6658
 XXYZ=             -0.0000 YYXZ=             -0.0000 ZZXY=             -0.0000
 N-N= 7.530031731257D+02 E-N=-3.672875784694D+03  KE= 9.197707798329D+02
 Calling FoFJK, ICntrl=      2127 FMM=F ISym2X=0 I1Cent= 0 IOpClX= 0 NMat=1 NMatS=1 NMatT=0.
 ***** Axes restored to original set *****
 -------------------------------------------------------------------
 Center     Atomic                   Forces (Hartrees/Bohr)
 Number     Number              X              Y              Z
 -------------------------------------------------------------------
      1        6           0.016098156    0.027391050   -0.000016233
      2        6          -0.023155676   -0.006301841    0.006321681
      3        6           0.005757156   -0.023301841   -0.006304039
      4        6          -0.004576206    0.009960222    0.003381809
      5        1           0.005971101   -0.003877009   -0.002677192
      6        6          -0.015035955   -0.025583724    0.000015166
      7        6           0.010926527    0.000845002   -0.003388405
      8        1          -0.006290970    0.003332774    0.002677469
      9        6           0.006506458    0.011070762   -0.000006566
     10        1           0.003498859   -0.008139198   -0.002685329
     11        6          -0.002919723    0.020131366    0.004779002
     12        6           0.019005990    0.007239607   -0.004795413
     13        1          -0.008811807   -0.000900840    0.002690744
     14       17           0.001229617    0.002092155   -0.000001183
     15        6          -0.016487639   -0.001868834    0.004999981
     16        1           0.005818525   -0.004221666   -0.002693142
     17        6           0.006386697   -0.015318363   -0.004989219
     18        1          -0.006517805    0.003031782    0.002693923
     19        6          -0.007290876   -0.012405177    0.000006983
     20        1           0.009416129    0.000075366   -0.003044108
     21        1          -0.004513910    0.008265872    0.003039025
     22        1           0.004985352    0.008482538   -0.000004955
 -------------------------------------------------------------------
 Cartesian Forces:  Max     0.027391050 RMS     0.009482308

 GradGradGradGradGradGradGradGradGradGradGradGradGradGradGradGradGradGrad
 Berny optimization.
 FormGI is forming the generalized inverse of G from B-inverse, IUseBI=4.
 Internal  Forces:  Max     0.014117629 RMS     0.004576010
 Search for a local minimum.
 Step number   1 out of a maximum of  121
 All quantities printed in internal units (Hartrees-Bohrs-Radians)
 Mixed Optimization -- RFO/linear search
 Second derivative matrix not updated -- first step.
 ITU=  0
     Eigenvalues ---    0.00237   0.01506   0.01506   0.02070   0.02070
     Eigenvalues ---    0.02070   0.02070   0.02070   0.02070   0.02070
     Eigenvalues ---    0.02070   0.02070   0.02070   0.02070   0.02070
     Eigenvalues ---    0.02070   0.02070   0.02070   0.02070   0.16000
     Eigenvalues ---    0.16000   0.16000   0.16000   0.16000   0.16000
     Eigenvalues ---    0.16000   0.16000   0.16000   0.22000   0.22000
     Eigenvalues ---    0.22000   0.22981   0.23485   0.24000   0.25000
     Eigenvalues ---    0.25000   0.25000   0.28519   0.29539   0.37230
     Eigenvalues ---    0.37230   0.37230   0.37230   0.37230   0.37230
     Eigenvalues ---    0.37230   0.37230   0.37230   0.41268   0.41268
     Eigenvalues ---    0.41459   0.41640   0.45389   0.45389   0.45389
     Eigenvalues ---    0.45389   0.45389   0.45389   0.45389   0.45389
 RFO step:  Lambda=-7.33568738D-03 EMin= 2.36824155D-03
 Linear search not attempted -- first point.
 Iteration  1 RMS(Cart)=  0.01949969 RMS(Int)=  0.00025297
 Iteration  2 RMS(Cart)=  0.00032522 RMS(Int)=  0.00004424
 Iteration  3 RMS(Cart)=  0.00000004 RMS(Int)=  0.00004424
 Variable       Old X    -DE/DX   Delta X   Delta X   Delta X     New X
                                 (Linear)    (Quad)   (Total)
    R1        2.64826   0.00108   0.00000   0.00308   0.00316   2.65142
    R2        2.64826   0.00108   0.00000   0.00308   0.00316   2.65142
    R3        2.91018  -0.01412   0.00000  -0.04826  -0.04826   2.86192
    R4        2.64826  -0.00866   0.00000  -0.01877  -0.01877   2.62949
    R5        2.02201   0.00642   0.00000   0.01692   0.01692   2.03893
    R6        2.64826  -0.00866   0.00000  -0.01877  -0.01877   2.62949
    R7        2.02201   0.00642   0.00000   0.01692   0.01692   2.03893
    R8        2.64826  -0.01113   0.00000  -0.02488  -0.02495   2.62331
    R9        2.02201   0.00923   0.00000   0.02431   0.02431   2.04632
   R10        2.64826   0.00129   0.00000   0.00342   0.00348   2.65174
   R11        2.64826   0.00129   0.00000   0.00342   0.00348   2.65174
   R12        2.64826  -0.01113   0.00000  -0.02488  -0.02495   2.62331
   R13        2.02201   0.00923   0.00000   0.02431   0.02431   2.04632
   R14        3.32592  -0.00243   0.00000  -0.00802  -0.00802   3.31790
   R15        2.64826  -0.00741   0.00000  -0.01606  -0.01606   2.63221
   R16        2.02201   0.00697   0.00000   0.01835   0.01835   2.04036
   R17        2.64826  -0.00741   0.00000  -0.01606  -0.01606   2.63221
   R18        2.02201   0.00697   0.00000   0.01835   0.01835   2.04036
   R19        2.64826  -0.00849   0.00000  -0.01902  -0.01908   2.62918
   R20        2.02201   0.00990   0.00000   0.02607   0.02607   2.04807
   R21        2.64826  -0.00849   0.00000  -0.01902  -0.01908   2.62918
   R22        2.02201   0.00990   0.00000   0.02607   0.02607   2.04807
   R23        2.02201   0.00984   0.00000   0.02592   0.02592   2.04792
    A1        2.09440  -0.01306   0.00000  -0.04881  -0.04866   2.04574
    A2        2.09440   0.00653   0.00000   0.02441   0.02433   2.11872
    A3        2.09440   0.00653   0.00000   0.02441   0.02433   2.11872
    A4        2.09440   0.00658   0.00000   0.02960   0.02968   2.12408
    A5        2.09440   0.00083   0.00000   0.00981   0.00977   2.10416
    A6        2.09440  -0.00741   0.00000  -0.03941  -0.03945   2.05495
    A7        2.09440   0.00658   0.00000   0.02960   0.02968   2.12408
    A8        2.09440   0.00083   0.00000   0.00981   0.00977   2.10416
    A9        2.09440  -0.00741   0.00000  -0.03941  -0.03945   2.05495
   A10        2.09440  -0.00160   0.00000  -0.00948  -0.00955   2.08484
   A11        2.09440   0.00153   0.00000   0.00912   0.00916   2.10356
   A12        2.09440   0.00007   0.00000   0.00035   0.00039   2.09479
   A13        2.09440   0.00585   0.00000   0.02202   0.02195   2.11635
   A14        2.09440   0.00585   0.00000   0.02202   0.02195   2.11635
   A15        2.09440  -0.01169   0.00000  -0.04403  -0.04391   2.05049
   A16        2.09440  -0.00160   0.00000  -0.00948  -0.00955   2.08484
   A17        2.09440   0.00153   0.00000   0.00912   0.00916   2.10356
   A18        2.09440   0.00007   0.00000   0.00035   0.00039   2.09479
   A19        2.09440   0.00310   0.00000   0.00855   0.00840   2.10280
   A20        2.09440  -0.00155   0.00000  -0.00428  -0.00420   2.09019
   A21        2.09440  -0.00155   0.00000  -0.00428  -0.00420   2.09019
   A22        2.09440   0.00502   0.00000   0.02241   0.02247   2.11686
   A23        2.09440   0.00075   0.00000   0.00828   0.00825   2.10265
   A24        2.09440  -0.00577   0.00000  -0.03069  -0.03072   2.06368
   A25        2.09440   0.00502   0.00000   0.02241   0.02247   2.11686
   A26        2.09440   0.00075   0.00000   0.00828   0.00825   2.10265
   A27        2.09440  -0.00577   0.00000  -0.03069  -0.03072   2.06368
   A28        2.09440   0.00191   0.00000   0.00618   0.00611   2.10051
   A29        2.09440  -0.00109   0.00000  -0.00386  -0.00383   2.09057
   A30        2.09440  -0.00083   0.00000  -0.00232  -0.00229   2.09211
   A31        2.09440   0.00191   0.00000   0.00618   0.00611   2.10051
   A32        2.09440  -0.00109   0.00000  -0.00386  -0.00383   2.09057
   A33        2.09440  -0.00083   0.00000  -0.00232  -0.00229   2.09211
   A34        2.09440  -0.00219   0.00000  -0.01313  -0.01326   2.08114
   A35        2.09440   0.00109   0.00000   0.00657   0.00663   2.10102
   A36        2.09440   0.00109   0.00000   0.00657   0.00663   2.10102
    D1        0.00000  -0.00000   0.00000  -0.00000  -0.00000   0.00000
    D2        3.14159   0.00000   0.00000   0.00000   0.00000  -3.14159
    D3       -3.14159  -0.00000   0.00000  -0.00000  -0.00000  -3.14159
    D4       -0.00000   0.00000   0.00000   0.00000   0.00000   0.00000
    D5        0.00000  -0.00000   0.00000  -0.00000  -0.00000  -0.00000
    D6        3.14159   0.00000   0.00000   0.00000   0.00000   3.14159
    D7        3.14159  -0.00000   0.00000  -0.00000  -0.00000   3.14159
    D8       -0.00000   0.00000   0.00000   0.00000   0.00000  -0.00000
    D9       -0.00000  -0.00000   0.00000  -0.00000  -0.00000  -0.00000
   D10        3.14159  -0.00000   0.00000  -0.00000  -0.00000   3.14159
   D11        3.14159  -0.00000   0.00000  -0.00000  -0.00000   3.14159
   D12       -0.00000  -0.00000   0.00000  -0.00000  -0.00000  -0.00000
   D13       -0.00000   0.00000   0.00000   0.00000   0.00000   0.00000
   D14        3.14159   0.00000   0.00000   0.00000   0.00000  -3.14159
   D15       -3.14159  -0.00000   0.00000  -0.00000  -0.00000  -3.14159
   D16        0.00000  -0.00000   0.00000  -0.00000  -0.00000   0.00000
   D17       -0.00000   0.00000   0.00000   0.00000   0.00000   0.00000
   D18       -3.14159  -0.00000   0.00000  -0.00000  -0.00000  -3.14159
   D19       -3.14159  -0.00000   0.00000  -0.00000  -0.00000  -3.14159
   D20        0.00000  -0.00000   0.00000  -0.00000  -0.00000   0.00000
   D21       -0.00000   0.00000   0.00000   0.00000   0.00000  -0.00000
   D22        3.14159   0.00000   0.00000   0.00000   0.00000   3.14159
   D23        3.14159  -0.00000   0.00000  -0.00000  -0.00000   3.14159
   D24       -0.00000   0.00000   0.00000   0.00000   0.00000  -0.00000
   D25       -3.14159   0.00000   0.00000   0.00000   0.00000  -3.14159
   D26        0.00000  -0.00000   0.00000  -0.00000  -0.00000   0.00000
   D27       -0.00000   0.00000   0.00000   0.00000   0.00000   0.00000
   D28       -3.14159  -0.00000   0.00000  -0.00000  -0.00000  -3.14159
   D29        3.14159   0.00000   0.00000   0.00000   0.00000   3.14159
   D30       -0.00000  -0.00000   0.00000  -0.00000  -0.00000  -0.00000
   D31       -0.00000   0.00000   0.00000   0.00000   0.00000  -0.00000
   D32        3.14159  -0.00000   0.00000  -0.00000  -0.00000   3.14159
   D33        0.00000  -0.00000   0.00000  -0.00000  -0.00000   0.00000
   D34       -3.14159  -0.00000   0.00000  -0.00000  -0.00000  -3.14159
   D35        3.14159   0.00000   0.00000   0.00000   0.00000   3.14159
   D36       -0.00000   0.00000   0.00000   0.00000   0.00000  -0.00000
   D37        0.00000  -0.00000   0.00000  -0.00000  -0.00000   0.00000
   D38        3.14159   0.00000   0.00000   0.00000   0.00000   3.14159
   D39        3.14159  -0.00000   0.00000  -0.00000  -0.00000   3.14159
   D40       -0.00000   0.00000   0.00000   0.00000   0.00000  -0.00000
   D41       -0.00000   0.00000   0.00000   0.00000   0.00000  -0.00000
   D42       -3.14159  -0.00000   0.00000  -0.00000  -0.00000  -3.14159
   D43        3.14159   0.00000   0.00000   0.00000   0.00000  -3.14159
   D44        0.00000  -0.00000   0.00000  -0.00000  -0.00000   0.00000
   D45       -0.00000   0.00000   0.00000   0.00000   0.00000  -0.00000
   D46        3.14159   0.00000   0.00000   0.00000   0.00000  -3.14159
   D47        3.14159   0.00000   0.00000   0.00000   0.00000  -3.14159
   D48        0.00000  -0.00000   0.00000  -0.00000  -0.00000   0.00000
   D49        0.00000  -0.00000   0.00000  -0.00000  -0.00000   0.00000
   D50        3.14159   0.00000   0.00000   0.00000   0.00000   3.14159
   D51        3.14159  -0.00000   0.00000  -0.00000  -0.00000   3.14159
   D52       -0.00000   0.00000   0.00000   0.00000   0.00000  -0.00000
         Item               Value     Threshold  Converged?
 Maximum Force            0.014118     0.000450     NO 
 RMS     Force            0.004576     0.000300     NO 
 Maximum Displacement     0.082542     0.001800     NO 
 RMS     Displacement     0.019499     0.001200     NO 
 Predicted change in Energy=-3.760227D-03
 GradGradGradGradGradGradGradGradGradGradGradGradGradGradGradGradGradGrad

                          Input orientation:                          
 ---------------------------------------------------------------------
 Center     Atomic      Atomic             Coordinates (Angstroms)
 Number     Number       Type             X           Y           Z
 ---------------------------------------------------------------------
      1          6           0       -1.590154   -1.085421    0.000882
      2          6           0       -0.994250   -2.283661   -0.420693
      3          6           0       -2.926719   -1.147418    0.423203
      4          6           0       -1.693270   -3.486801   -0.422608
      5          1           0        0.031037   -2.297999   -0.756436
      6          6           0       -0.822795    0.220241    0.000110
      7          6           0       -3.637756   -2.343493    0.426536
      8          1           0       -3.437910   -0.258347    0.758430
      9          6           0       -3.014642   -3.509190    0.002315
     10          1           0       -1.214511   -4.400525   -0.751991
     11          6           0        0.513889    0.278967   -0.422869
     12          6           0       -1.421613    1.416994    0.422348
     13          1           0       -4.668804   -2.369489    0.756475
     14         17           0       -3.904263   -5.022881    0.003209
     15          6           0        1.220235    1.479490   -0.423832
     16          1           0        1.021962   -0.612981   -0.757630
     17          6           0       -0.716425    2.618197    0.421891
     18          1           0       -2.447897    1.427207    0.757628
     19          6           0        0.608423    2.655458   -0.001328
     20          1           0        2.251853    1.496820   -0.755603
     21          1           0       -1.203031    3.528204    0.753115
     22          1           0        1.157527    3.589761   -0.001881
 ---------------------------------------------------------------------
                    Distance matrix (angstroms):
                    1          2          3          4          5
     1  C    0.000000
     2  C    1.403070   0.000000
     3  C    1.403070   2.395338   0.000000
     4  C    2.440615   1.391467   2.776600   0.000000
     5  H    2.161512   1.078954   3.385809   2.120832   0.000000
     6  C    1.514461   2.544797   2.544797   3.831263   2.764584
     7  C    2.440615   2.776600   1.391467   2.410233   3.855066
     8  H    2.161512   3.385809   1.078954   3.855066   4.299837
     9  C    2.811374   2.400592   2.400592   1.388195   3.364349
    10  H    3.420210   2.153924   3.859461   1.082864   2.443773
    11  C    2.543250   2.973474   3.819450   4.364925   2.642947
    12  C    2.543250   3.819450   2.973474   4.983468   4.159434
    13  H    3.420210   3.859461   2.153924   3.390048   4.937866
    14  Cl   4.567132   4.018855   4.018855   2.725683   4.846507
    15  C    3.828504   4.366378   4.981500   5.757827   3.974198
    16  H    2.760741   2.640039   4.155968   3.967817   1.954794
    17  C    3.828504   4.981500   4.366378   6.240065   5.110395
    18  H    2.760741   4.155968   2.640039   5.109784   4.723840
    19  C    4.339115   5.209541   5.209541   6.572870   5.043838
    20  H    4.690550   4.994135   5.932890   6.364854   4.396894
    21  H    4.690550   5.932890   4.994135   7.129724   6.143803
    22  H    5.422830   6.269181   6.269181   7.640797   6.041858
                    6          7          8          9         10
     6  C    0.000000
     7  C    3.831263   0.000000
     8  H    2.764584   2.120832   0.000000
     9  C    4.325835   1.388195   3.364349   0.000000
    10  H    4.697933   3.390048   4.937866   2.145676   0.000000
    11  C    1.403241   4.983468   4.159434   5.194367   4.999334
    12  C    1.403241   4.364925   2.642947   5.194367   5.938475
    13  H    4.697933   1.082864   2.443773   2.145676   4.281672
    14  Cl   6.081593   2.725683   4.846507   1.755758   2.862240
    15  C    2.437090   6.240065   5.110395   6.557646   6.372618
    16  H    2.161378   5.109784   4.723840   5.025904   4.398560
    17  C    2.437090   5.757827   3.974198   6.557646   7.133621
    18  H    2.161378   3.967817   1.954794   5.025904   6.145132
    19  C    2.824654   6.572870   5.043838   7.150489   7.326219
    20  H    3.413828   7.129724   6.143803   7.305515   6.840642
    21  H    3.413828   6.364854   4.396894   7.305515   8.070330
    22  H    3.908369   7.640797   6.041858   8.234204   8.368626
                   11         12         13         14         15
    11  C    0.000000
    12  C    2.399097   0.000000
    13  H    5.938475   4.999334   0.000000
    14  Cl   6.914565   6.914565   2.862240   0.000000
    15  C    1.392904   2.774759   7.133621   8.289975   0.000000
    16  H    1.079710   3.388835   6.145132   6.655358   2.128185
    17  C    2.774759   1.392904   6.372618   8.289975   2.400532
    18  H    3.388835   1.079710   4.398560   6.655358   3.854059
    19  C    2.415438   2.415438   7.326219   8.906247   1.391303
    20  H    2.148114   3.858535   8.070330   8.998892   1.083793
    21  H    3.858535   2.148114   6.840642   8.998892   3.384472
    22  H    3.398949   3.398949   8.368626   9.989962   2.152955
                   16         17         18         19         20
    16  H    0.000000
    17  C    3.854059   0.000000
    18  H    4.300964   2.128185   0.000000
    19  C    3.380192   1.391303   3.380192   0.000000
    20  H    2.442109   3.384472   4.937850   2.147612   0.000000
    21  H    4.937850   1.083793   2.442109   2.147612   4.282403
    22  H    4.272303   2.152955   4.272303   1.083715   2.479122
                   21         22
    21  H    0.000000
    22  H    2.479122   0.000000
 Stoichiometry    C12H9Cl
 Framework group  C1[X(C12H9Cl)]
 Deg. of freedom    60
 Full point group                 C1      NOp   1
 Largest Abelian subgroup         C1      NOp   1
 Largest concise Abelian subgroup C1      NOp   1
                         Standard orientation:                         
 ---------------------------------------------------------------------
 Center     Atomic      Atomic             Coordinates (Angstroms)
 Number     Number       Type             X           Y           Z
 ---------------------------------------------------------------------
      1          6           0       -0.118772    0.000000    0.000000
      2          6           0        0.612114    1.197669   -0.000001
      3          6           0        0.612114   -1.197669    0.000001
      4          6           0        2.003561    1.205117   -0.000001
      5          1           0        0.104805    2.149918   -0.000001
      6          6           0       -1.633233    0.000000   -0.000000
      7          6           0        2.003561   -1.205117    0.000001
      8          1           0        0.104805   -2.149918    0.000003
      9          6           0        2.692602    0.000000    0.000000
     10          1           0        2.548560    2.140836   -0.000001
     11          6           0       -2.361360    1.199548    0.000001
     12          6           0       -2.361360   -1.199548   -0.000001
     13          1           0        2.548560   -2.140836    0.000002
     14         17           0        4.448360    0.000000   -0.000000
     15          6           0       -3.754264    1.200266    0.000001
     16          1           0       -1.849989    2.150482    0.000000
     17          6           0       -3.754264   -1.200266   -0.000001
     18          1           0       -1.849989   -2.150482   -0.000003
     19          6           0       -4.457887    0.000000    0.000000
     20          1           0       -4.292081    2.141202    0.000002
     21          1           0       -4.292081   -2.141202   -0.000001
     22          1           0       -5.541601    0.000000    0.000000
 ---------------------------------------------------------------------
 Rotational constants (GHZ):           2.8795210           0.2949144           0.2675160
 Standard basis: 6-311+G(d,p) (5D, 7F)
 There are   361 symmetry adapted cartesian basis functions of A   symmetry.
 There are   348 symmetry adapted basis functions of A   symmetry.
   348 basis functions,   557 primitive gaussians,   361 cartesian basis functions
    49 alpha electrons       49 beta electrons
       nuclear repulsion energy       754.3863921794 Hartrees.
 NAtoms=   22 NActive=   22 NUniq=   22 SFac= 1.00D+00 NAtFMM=   60 NAOKFM=F Big=F
 Integral buffers will be    131072 words long.
 Raffenetti 2 integral format.
 Two-electron integral symmetry is turned on.
 One-electron integrals computed using PRISM.
 NBasis=   348 RedAO= T EigKep=  1.59D-06  NBF=   348
 NBsUse=   344 1.00D-06 EigRej=  9.01D-07 NBFU=   344
 Initial guess from the checkpoint file:  "/scratch/pkc/Gau-3941.chk"
 B after Tr=     0.000000   -0.000000    0.000000
         Rot=    1.000000   -0.000000   -0.000000   -0.000000 Ang=   0.00 deg.
 ExpMin= 4.38D-02 ExpMax= 1.06D+05 ExpMxC= 3.62D+03 IAcc=3 IRadAn=         5 AccDes= 0.00D+00
 Harris functional with IExCor=  402 and IRadAn=       5 diagonalized for initial guess.
 HarFok:  IExCor=  402 AccDes= 0.00D+00 IRadAn=         5 IDoV= 1 UseB2=F ITyADJ=14
 ICtDFT=  3500011 ScaDFX=  1.000000  1.000000  1.000000  1.000000
 FoFCou: FMM=F IPFlag=           0 FMFlag=      100000 FMFlg1=           0
         NFxFlg=           0 DoJE=T BraDBF=F KetDBF=T FulRan=T
         wScrn=  0.000000 ICntrl=       500 IOpCl=  0 I1Cent=   200000004 NGrid=           0
         NMat0=    1 NMatS0=      1 NMatT0=    0 NMatD0=    1 NMtDS0=    0 NMtDT0=    0
 Petite list used in FoFCou.
 Requested convergence on RMS density matrix=1.00D-08 within  32 cycles.
 Requested convergence on MAX density matrix=1.00D-06.
 Requested convergence on             energy=1.00D-06.
 No special actions if energy rises.
 SCF Done:  E(RB3LYP) =  -923.042020368     A.U. after   13 cycles
            NFock= 13  Conv=0.39D-08     -V/T= 2.0035
 QCSCF skips out because SCF is already converged.
 Calling FoFJK, ICntrl=      2127 FMM=F ISym2X=0 I1Cent= 0 IOpClX= 0 NMat=1 NMatS=1 NMatT=0.
 ***** Axes restored to original set *****
 -------------------------------------------------------------------
 Center     Atomic                   Forces (Hartrees/Bohr)
 Number     Number              X              Y              Z
 -------------------------------------------------------------------
      1        6           0.006505239    0.011068689   -0.000006568
      2        6          -0.002832126   -0.000814798    0.000764821
      3        6           0.000665690   -0.002871423   -0.000762603
      4        6           0.001836033   -0.000252413   -0.000644380
      5        1           0.001516780   -0.000327124   -0.000554912
      6        6          -0.006367653   -0.010834592    0.000006439
      7        6          -0.001113497    0.001481833    0.000643616
      8        1          -0.001023487    0.001166488    0.000554381
      9        6          -0.000145032   -0.000246777    0.000000153
     10        1           0.000190653    0.000252083   -0.000013965
     11        6           0.000401287    0.002681552    0.000379907
     12        6           0.002147309    0.001654936   -0.000382538
     13        1           0.000127486    0.000289224    0.000013656
     14       17          -0.000575303   -0.000978882    0.000000583
     15        6          -0.000394814   -0.001421825   -0.000142305
     16        1           0.000863877   -0.000986782   -0.000468319
     17        6          -0.001050010   -0.001036589    0.000143822
     18        1          -0.001282157    0.000275031    0.000468804
     19        6           0.000813550    0.001384278   -0.000000850
     20        1           0.000299359   -0.000624691   -0.000216138
     21        1          -0.000691321   -0.000042196    0.000216482
     22        1           0.000108136    0.000183977   -0.000000086
 -------------------------------------------------------------------
 Cartesian Forces:  Max     0.011068689 RMS     0.002408805

 GradGradGradGradGradGradGradGradGradGradGradGradGradGradGradGradGradGrad
 Berny optimization.
 Using GEDIIS/GDIIS optimizer.
 FormGI is forming the generalized inverse of G from B-inverse, IUseBI=4.
 Internal  Forces:  Max     0.010168882 RMS     0.001113631
 Search for a local minimum.
 Step number   2 out of a maximum of  121
 All quantities printed in internal units (Hartrees-Bohrs-Radians)
 Mixed Optimization -- RFO/linear search
 Update second derivatives using D2CorX and points    1    2
 DE= -4.12D-03 DEPred=-3.76D-03 R= 1.10D+00
 TightC=F SS=  1.41D+00  RLast= 1.60D-01 DXNew= 5.0454D-01 4.7874D-01
 Trust test= 1.10D+00 RLast= 1.60D-01 DXMaxT set to 4.79D-01
 ITU=  1  0
 Use linear search instead of GDIIS.
     Eigenvalues ---    0.00237   0.01477   0.01480   0.02070   0.02070
     Eigenvalues ---    0.02070   0.02070   0.02070   0.02070   0.02070
     Eigenvalues ---    0.02070   0.02070   0.02070   0.02070   0.02070
     Eigenvalues ---    0.02070   0.02070   0.02070   0.02070   0.15565
     Eigenvalues ---    0.16000   0.16000   0.16000   0.16000   0.16000
     Eigenvalues ---    0.16000   0.16000   0.16180   0.20370   0.22000
     Eigenvalues ---    0.22000   0.22039   0.23197   0.23879   0.25000
     Eigenvalues ---    0.25000   0.25000   0.27103   0.29634   0.36803
     Eigenvalues ---    0.37230   0.37230   0.37230   0.37230   0.37230
     Eigenvalues ---    0.37230   0.37230   0.38046   0.41133   0.41158
     Eigenvalues ---    0.41581   0.42484   0.45091   0.45389   0.45389
     Eigenvalues ---    0.45389   0.45389   0.45389   0.45389   0.48719
 RFO step:  Lambda=-4.68282059D-04 EMin= 2.36824155D-03
 Quartic linear search produced a step of  0.13735.
 Iteration  1 RMS(Cart)=  0.00658886 RMS(Int)=  0.00001154
 Iteration  2 RMS(Cart)=  0.00001229 RMS(Int)=  0.00000754
 Iteration  3 RMS(Cart)=  0.00000000 RMS(Int)=  0.00000754
 Variable       Old X    -DE/DX   Delta X   Delta X   Delta X     New X
                                 (Linear)    (Quad)   (Total)
    R1        2.65142   0.00077   0.00043   0.00156   0.00201   2.65342
    R2        2.65142   0.00077   0.00043   0.00156   0.00201   2.65342
    R3        2.86192  -0.01017  -0.00663  -0.03672  -0.04334   2.81857
    R4        2.62949  -0.00031  -0.00258   0.00065  -0.00193   2.62757
    R5        2.03893   0.00162   0.00232   0.00363   0.00596   2.04488
    R6        2.62949  -0.00031  -0.00258   0.00065  -0.00193   2.62757
    R7        2.03893   0.00162   0.00232   0.00363   0.00596   2.04488
    R8        2.62331   0.00139  -0.00343   0.00550   0.00206   2.62537
    R9        2.04632  -0.00012   0.00334  -0.00225   0.00109   2.04740
   R10        2.65174   0.00093   0.00048   0.00197   0.00246   2.65420
   R11        2.65174   0.00093   0.00048   0.00197   0.00246   2.65420
   R12        2.62331   0.00139  -0.00343   0.00550   0.00206   2.62537
   R13        2.04632  -0.00012   0.00334  -0.00225   0.00109   2.04740
   R14        3.31790   0.00114  -0.00110   0.00499   0.00389   3.32179
   R15        2.63221  -0.00090  -0.00221  -0.00103  -0.00324   2.62897
   R16        2.04036   0.00137   0.00252   0.00276   0.00528   2.04563
   R17        2.63221  -0.00090  -0.00221  -0.00103  -0.00324   2.62897
   R18        2.04036   0.00137   0.00252   0.00276   0.00528   2.04563
   R19        2.62918   0.00125  -0.00262   0.00467   0.00204   2.63122
   R20        2.04807   0.00034   0.00358  -0.00097   0.00261   2.05068
   R21        2.62918   0.00125  -0.00262   0.00467   0.00204   2.63122
   R22        2.04807   0.00034   0.00358  -0.00097   0.00261   2.05068
   R23        2.04792   0.00021   0.00356  -0.00135   0.00221   2.05014
    A1        2.04574  -0.00116  -0.00668  -0.00207  -0.00872   2.03701
    A2        2.11872   0.00058   0.00334   0.00103   0.00436   2.12309
    A3        2.11872   0.00058   0.00334   0.00103   0.00436   2.12309
    A4        2.12408   0.00099   0.00408   0.00231   0.00640   2.13048
    A5        2.10416  -0.00018   0.00134  -0.00092   0.00042   2.10458
    A6        2.05495  -0.00081  -0.00542  -0.00140  -0.00682   2.04812
    A7        2.12408   0.00099   0.00408   0.00231   0.00640   2.13048
    A8        2.10416  -0.00018   0.00134  -0.00092   0.00042   2.10458
    A9        2.05495  -0.00081  -0.00542  -0.00140  -0.00682   2.04812
   A10        2.08484  -0.00019  -0.00131  -0.00012  -0.00144   2.08340
   A11        2.10356  -0.00020   0.00126  -0.00241  -0.00114   2.10241
   A12        2.09479   0.00039   0.00005   0.00253   0.00259   2.09737
   A13        2.11635   0.00050   0.00302   0.00076   0.00377   2.12011
   A14        2.11635   0.00050   0.00302   0.00076   0.00377   2.12011
   A15        2.05049  -0.00100  -0.00603  -0.00152  -0.00753   2.04296
   A16        2.08484  -0.00019  -0.00131  -0.00012  -0.00144   2.08340
   A17        2.10356  -0.00020   0.00126  -0.00241  -0.00114   2.10241
   A18        2.09479   0.00039   0.00005   0.00253   0.00259   2.09737
   A19        2.10280  -0.00043   0.00115  -0.00232  -0.00119   2.10161
   A20        2.09019   0.00022  -0.00058   0.00116   0.00060   2.09079
   A21        2.09019   0.00022  -0.00058   0.00116   0.00060   2.09079
   A22        2.11686   0.00067   0.00309   0.00137   0.00446   2.12133
   A23        2.10265  -0.00006   0.00113  -0.00034   0.00078   2.10343
   A24        2.06368  -0.00061  -0.00422  -0.00102  -0.00525   2.05843
   A25        2.11686   0.00067   0.00309   0.00137   0.00446   2.12133
   A26        2.10265  -0.00006   0.00113  -0.00034   0.00078   2.10343
   A27        2.06368  -0.00061  -0.00422  -0.00102  -0.00525   2.05843
   A28        2.10051   0.00022   0.00084   0.00074   0.00157   2.10208
   A29        2.09057  -0.00077  -0.00053  -0.00496  -0.00548   2.08509
   A30        2.09211   0.00055  -0.00031   0.00421   0.00390   2.09601
   A31        2.10051   0.00022   0.00084   0.00074   0.00157   2.10208
   A32        2.09057  -0.00077  -0.00053  -0.00496  -0.00548   2.08509
   A33        2.09211   0.00055  -0.00031   0.00421   0.00390   2.09601
   A34        2.08114  -0.00078  -0.00182  -0.00270  -0.00454   2.07659
   A35        2.10102   0.00039   0.00091   0.00135   0.00227   2.10330
   A36        2.10102   0.00039   0.00091   0.00135   0.00227   2.10330
    D1        0.00000  -0.00000  -0.00000  -0.00000  -0.00000   0.00000
    D2       -3.14159  -0.00000   0.00000  -0.00000  -0.00000   3.14159
    D3       -3.14159  -0.00000  -0.00000   0.00000  -0.00000  -3.14159
    D4        0.00000  -0.00000   0.00000  -0.00000  -0.00000  -0.00000
    D5       -0.00000   0.00000  -0.00000   0.00000   0.00000  -0.00000
    D6        3.14159   0.00000   0.00000   0.00000   0.00000   3.14159
    D7        3.14159   0.00000  -0.00000   0.00000   0.00000   3.14159
    D8       -0.00000   0.00000   0.00000   0.00000   0.00000  -0.00000
    D9       -0.00000  -0.00000  -0.00000  -0.00000  -0.00000  -0.00001
   D10        3.14159  -0.00000  -0.00000  -0.00001  -0.00001   3.14159
   D11        3.14159  -0.00000  -0.00000  -0.00000  -0.00000   3.14159
   D12       -0.00000  -0.00000  -0.00000  -0.00000  -0.00000  -0.00001
   D13        0.00000  -0.00000   0.00000  -0.00000  -0.00000  -0.00000
   D14       -3.14159  -0.00000   0.00000  -0.00000  -0.00000  -3.14159
   D15       -3.14159  -0.00000  -0.00000   0.00000  -0.00000  -3.14159
   D16        0.00000   0.00000  -0.00000   0.00000   0.00000   0.00000
   D17        0.00000  -0.00000   0.00000  -0.00000  -0.00000   0.00000
   D18       -3.14159  -0.00000  -0.00000  -0.00000  -0.00000   3.14159
   D19       -3.14159  -0.00000  -0.00000  -0.00000  -0.00000  -3.14159
   D20        0.00000  -0.00000  -0.00000  -0.00000  -0.00000   0.00000
   D21       -0.00000   0.00000   0.00000   0.00000   0.00000   0.00000
   D22        3.14159   0.00000   0.00000   0.00000   0.00000   3.14159
   D23        3.14159   0.00000  -0.00000   0.00000   0.00000   3.14159
   D24       -0.00000   0.00000   0.00000   0.00000   0.00000  -0.00000
   D25       -3.14159  -0.00000   0.00000  -0.00000  -0.00000  -3.14159
   D26        0.00000  -0.00000  -0.00000  -0.00000  -0.00000  -0.00000
   D27        0.00000  -0.00000   0.00000  -0.00000  -0.00000   0.00000
   D28       -3.14159  -0.00000  -0.00000  -0.00000  -0.00000   3.14159
   D29        3.14159   0.00000   0.00000   0.00000   0.00000   3.14159
   D30       -0.00000   0.00000  -0.00000   0.00000   0.00000  -0.00000
   D31       -0.00000   0.00000   0.00000  -0.00000   0.00000  -0.00000
   D32        3.14159   0.00000  -0.00000   0.00000   0.00000   3.14159
   D33        0.00000  -0.00000  -0.00000  -0.00000  -0.00000  -0.00000
   D34       -3.14159  -0.00000  -0.00000   0.00000  -0.00000  -3.14159
   D35        3.14159   0.00000   0.00000  -0.00000   0.00000  -3.14159
   D36       -0.00000   0.00000   0.00000   0.00000   0.00000   0.00000
   D37        0.00000  -0.00000  -0.00000   0.00000  -0.00000  -0.00000
   D38        3.14159   0.00000   0.00000   0.00000   0.00000   3.14159
   D39        3.14159   0.00000  -0.00000   0.00000   0.00000  -3.14159
   D40       -0.00000   0.00000   0.00000   0.00000   0.00000   0.00000
   D41       -0.00000   0.00000   0.00000   0.00000   0.00000   0.00000
   D42       -3.14159  -0.00000  -0.00000  -0.00000  -0.00000   3.14159
   D43       -3.14159  -0.00000   0.00000  -0.00000  -0.00000  -3.14159
   D44        0.00000  -0.00000  -0.00000  -0.00000  -0.00000   0.00000
   D45       -0.00000   0.00000   0.00000  -0.00000   0.00000  -0.00000
   D46       -3.14159  -0.00000   0.00000  -0.00000  -0.00000   3.14159
   D47       -3.14159  -0.00000   0.00000  -0.00000  -0.00000  -3.14159
   D48        0.00000  -0.00000  -0.00000  -0.00000  -0.00000   0.00000
   D49        0.00000  -0.00000  -0.00000   0.00000  -0.00000   0.00000
   D50        3.14159   0.00000   0.00000   0.00000   0.00000  -3.14159
   D51        3.14159   0.00000  -0.00000   0.00000   0.00000  -3.14159
   D52       -0.00000   0.00000   0.00000   0.00000   0.00000   0.00000
         Item               Value     Threshold  Converged?
 Maximum Force            0.010169     0.000450     NO 
 RMS     Force            0.001114     0.000300     NO 
 Maximum Displacement     0.023964     0.001800     NO 
 RMS     Displacement     0.006594     0.001200     NO 
 Predicted change in Energy=-2.967086D-04
 GradGradGradGradGradGradGradGradGradGradGradGradGradGradGradGradGradGrad

                          Input orientation:                          
 ---------------------------------------------------------------------
 Center     Atomic      Atomic             Coordinates (Angstroms)
 Number     Number       Type             X           Y           Z
 ---------------------------------------------------------------------
      1          6           0       -1.584071   -1.075072    0.000876
      2          6           0       -0.992946   -2.277200   -0.419890
      3          6           0       -2.921709   -1.143137    0.422394
      4          6           0       -1.689157   -3.480789   -0.422803
      5          1           0        0.034972   -2.296671   -0.757468
      6          6           0       -0.828334    0.210816    0.000116
      7          6           0       -3.634505   -2.336974    0.426723
      8          1           0       -3.438664   -0.254261    0.759458
      9          6           0       -3.011598   -3.504010    0.002312
     10          1           0       -1.207237   -4.393247   -0.752975
     11          6           0        0.509656    0.274796   -0.422285
     12          6           0       -1.423198    1.411265    0.421770
     13          1           0       -4.665985   -2.359592    0.757448
     14         17           0       -3.902261   -5.019475    0.003208
     15          6           0        1.215916    1.473382   -0.423588
     16          1           0        1.023119   -0.616817   -0.758728
     17          6           0       -0.719660    2.611451    0.421655
     18          1           0       -2.451809    1.426352    0.758731
     19          6           0        0.606303    2.651852   -0.001327
     20          1           0        2.248565    1.484139   -0.756943
     21          1           0       -1.212510    3.519163    0.754467
     22          1           0        1.156001    3.587164   -0.001879
 ---------------------------------------------------------------------
                    Distance matrix (angstroms):
                    1          2          3          4          5
     1  C    0.000000
     2  C    1.404131   0.000000
     3  C    1.404131   2.390746   0.000000
     4  C    2.445000   1.390448   2.774556   0.000000
     5  H    2.165338   1.082106   3.385953   2.118197   0.000000
     6  C    1.491524   2.528581   2.528581   3.814161   2.758028
     7  C    2.445000   2.774556   1.390448   2.411304   3.856034
     8  H    2.165338   3.385953   1.082106   3.856034   4.305653
     9  C    2.817371   2.399640   2.399640   1.389284   3.364004
    10  H    3.423534   2.152795   3.857995   1.083439   2.436952
    11  C    2.526836   2.961503   3.807660   4.351919   2.636307
    12  C    2.526836   3.807660   2.961503   4.971542   4.155195
    13  H    3.423534   3.857995   2.152795   3.392872   4.939425
    14  Cl   4.575186   4.020348   4.020348   2.728895   4.847070
    15  C    3.809817   4.352694   4.968077   5.743105   3.964770
    16  H    2.753985   2.633667   4.151352   3.958740   1.948935
    17  C    3.809817   4.968077   4.352694   6.226429   5.103867
    18  H    2.753985   4.151352   2.633667   5.104674   4.726927
[...]
      6          6           0       -1.622596    0.000000    0.000000
      7          6           0        1.999437   -1.205615    0.000065
      8          1           0        0.104872   -2.152396    0.000119
      9          6           0        2.690661    0.000000    0.000000
     10          1           0        2.540343    2.143391   -0.000117
     11          6           0       -2.358269    1.197757    0.000065
     12          6           0       -2.358269   -1.197757   -0.000065
     13          1           0        2.540343   -2.143391    0.000117
     14         17           0        4.448535    0.000000   -0.000000
     15          6           0       -3.749707    1.199511    0.000065
     16          1           0       -1.850491    2.153016    0.000119
     17          6           0       -3.749707   -1.199511   -0.000065
     18          1           0       -1.850491   -2.153016   -0.000119
     19          6           0       -4.457447    0.000000    0.000000
     20          1           0       -4.280863    2.144836    0.000117
     21          1           0       -4.280863   -2.144836   -0.000117
     22          1           0       -5.541326    0.000000    0.000000
 ---------------------------------------------------------------------
 Rotational constants (GHZ):           2.8819317           0.2953351           0.2678829

 **********************************************************************

            Population analysis using the SCF Density.

 **********************************************************************

 Orbital symmetries:
       Occupied  (A) (A) (A) (A) (A) (A) (A) (A) (A) (A) (A) (A)
                 (A) (A) (A) (A) (A) (A) (A) (A) (A) (A) (A) (A)
                 (A) (A) (A) (A) (A) (A) (A) (A) (A) (A) (A) (A)
                 (A) (A) (A) (A) (A) (A) (A) (A) (A) (A) (A) (A)
                 (A)
       Virtual   (A) (A) (A) (A) (A) (A) (A) (A) (A) (A) (A) (A)
                 (A) (A) (A) (A) (A) (A) (A) (A) (A) (A) (A) (A)
                 (A) (A) (A) (A) (A) (A) (A) (A) (A) (A) (A) (A)
                 (A) (A) (A) (A) (A) (A) (A) (A) (A) (A) (A) (A)
                 (A) (A) (A) (A) (A) (A) (A) (A) (A) (A) (A) (A)
                 (A) (A) (A) (A) (A) (A) (A) (A) (A) (A) (A) (A)
                 (A) (A) (A) (A) (A) (A) (A) (A) (A) (A) (A) (A)
                 (A) (A) (A) (A) (A) (A) (A) (A) (A) (A) (A) (A)
                 (A) (A) (A) (A) (A) (A) (A) (A) (A) (A) (A) (A)
                 (A) (A) (A) (A) (A) (A) (A) (A) (A) (A) (A) (A)
                 (A) (A) (A) (A) (A) (A) (A) (A) (A) (A) (A) (A)
                 (A) (A) (A) (A) (A) (A) (A) (A) (A) (A) (A) (A)
                 (A) (A) (A) (A) (A) (A) (A) (A) (A) (A) (A) (A)
                 (A) (A) (A) (A) (A) (A) (A) (A) (A) (A) (A) (A)
                 (A) (A) (A) (A) (A) (A) (A) (A) (A) (A) (A) (A)
                 (A) (A) (A) (A) (A) (A) (A) (A) (A) (A) (A) (A)
                 (A) (A) (A) (A) (A) (A) (A) (A) (A) (A) (A) (A)
                 (A) (A) (A) (A) (A) (A) (A) (A) (A) (A) (A) (A)
                 (A) (A) (A) (A) (A) (A) (A) (A) (A) (A) (A) (A)
                 (A) (A) (A) (A) (A) (A) (A) (A) (A) (A) (A) (A)
                 (A) (A) (A) (A) (A) (A) (A) (A) (A) (A) (A) (A)
                 (A) (A) (A) (A) (A) (A) (A) (A) (A) (A) (A) (A)
                 (A) (A) (A) (A) (A) (A) (A) (A) (A) (A) (A) (A)
                 (A) (A) (A) (A) (A) (A) (A) (A) (A) (A) (A) (A)
                 (A) (A) (A) (A) (A) (A) (A)
 The electronic state is 1-A.
 Alpha  occ. eigenvalues -- -101.55719 -10.24388 -10.20402 -10.20094 -10.19465
 Alpha  occ. eigenvalues --  -10.19463 -10.19292 -10.19291 -10.18558 -10.18558
 Alpha  occ. eigenvalues --  -10.18501 -10.18490 -10.18384  -9.47175  -7.23630
 Alpha  occ. eigenvalues --   -7.22661  -7.22627  -0.90213  -0.87457  -0.84571
 Alpha  occ. eigenvalues --   -0.78234  -0.77194  -0.75793  -0.72666  -0.64237
 Alpha  occ. eigenvalues --   -0.63461  -0.60554  -0.59393  -0.54915  -0.50572
 Alpha  occ. eigenvalues --   -0.49141  -0.48888  -0.45517  -0.45117  -0.44714
 Alpha  occ. eigenvalues --   -0.44004  -0.42744  -0.41149  -0.38694  -0.38505
 Alpha  occ. eigenvalues --   -0.37908  -0.36002  -0.34745  -0.34425  -0.31993
 Alpha  occ. eigenvalues --   -0.28857  -0.27655  -0.26624  -0.23317
 Alpha virt. eigenvalues --   -0.05879  -0.03902  -0.01425  -0.00557   0.00819
 Alpha virt. eigenvalues --    0.00875   0.01094   0.01310   0.02920   0.03019
 Alpha virt. eigenvalues --    0.04446   0.04901   0.05164   0.05396   0.06523
 Alpha virt. eigenvalues --    0.06883   0.07591   0.07855   0.07931   0.08509
 Alpha virt. eigenvalues --    0.09892   0.11073   0.11353   0.11398   0.11696
 Alpha virt. eigenvalues --    0.12051   0.12084   0.14244   0.14536   0.14578
 Alpha virt. eigenvalues --    0.14702   0.15021   0.15571   0.15888   0.16143
 Alpha virt. eigenvalues --    0.16314   0.16533   0.16882   0.18017   0.18770
 Alpha virt. eigenvalues --    0.18961   0.19142   0.19886   0.19990   0.20651
 Alpha virt. eigenvalues --    0.20799   0.20991   0.20992   0.21210   0.21781
 Alpha virt. eigenvalues --    0.23067   0.23818   0.23837   0.24118   0.24602
 Alpha virt. eigenvalues --    0.26048   0.26054   0.26984   0.27341   0.27454
 Alpha virt. eigenvalues --    0.28391   0.29696   0.30637   0.31033   0.31140
 Alpha virt. eigenvalues --    0.32019   0.33478   0.34630   0.35057   0.35593
 Alpha virt. eigenvalues --    0.38201   0.39247   0.39982   0.43621   0.45014
 Alpha virt. eigenvalues --    0.45725   0.46335   0.48685   0.49596   0.49916
 Alpha virt. eigenvalues --    0.51801   0.52075   0.52629   0.54200   0.54226
 Alpha virt. eigenvalues --    0.54542   0.54694   0.54716   0.54964   0.56613
 Alpha virt. eigenvalues --    0.57553   0.57713   0.59124   0.60371   0.61492
 Alpha virt. eigenvalues --    0.62088   0.62581   0.63458   0.64843   0.66166
 Alpha virt. eigenvalues --    0.66462   0.67339   0.67923   0.68123   0.68540
 Alpha virt. eigenvalues --    0.68683   0.70835   0.71537   0.73566   0.74037
 Alpha virt. eigenvalues --    0.75310   0.77654   0.79241   0.81583   0.82248
 Alpha virt. eigenvalues --    0.82854   0.83231   0.83275   0.83389   0.84060
 Alpha virt. eigenvalues --    0.85889   0.86285   0.87631   0.88386   0.88817
 Alpha virt. eigenvalues --    0.89116   0.90491   0.92272   0.93835   0.94266
 Alpha virt. eigenvalues --    0.94387   0.94766   0.96180   0.96940   0.97700
 Alpha virt. eigenvalues --    1.01453   1.02091   1.03744   1.04802   1.06656
 Alpha virt. eigenvalues --    1.07192   1.07325   1.07462   1.09683   1.10889
 Alpha virt. eigenvalues --    1.12348   1.13713   1.14919   1.15529   1.21006
 Alpha virt. eigenvalues --    1.27067   1.28961   1.29137   1.32684   1.35196
 Alpha virt. eigenvalues --    1.45023   1.46071   1.46260   1.47937   1.48771
 Alpha virt. eigenvalues --    1.52065   1.53423   1.54404   1.54523   1.56025
 Alpha virt. eigenvalues --    1.56208   1.56726   1.57683   1.61450   1.62778
 Alpha virt. eigenvalues --    1.64435   1.64646   1.68146   1.69383   1.71006
 Alpha virt. eigenvalues --    1.71535   1.73259   1.73813   1.75512   1.77574
 Alpha virt. eigenvalues --    1.80055   1.80774   1.83051   1.84072   1.84330
 Alpha virt. eigenvalues --    1.89210   1.91463   1.92745   1.93156   1.93895
 Alpha virt. eigenvalues --    1.94742   1.94746   1.95725   1.96582   1.97546
 Alpha virt. eigenvalues --    1.98158   2.01409   2.03628   2.04343   2.05561
 Alpha virt. eigenvalues --    2.05806   2.07663   2.08150   2.12438   2.20899
 Alpha virt. eigenvalues --    2.22855   2.27905   2.28227   2.28632   2.28970
 Alpha virt. eigenvalues --    2.35528   2.36182   2.36294   2.39097   2.39810
 Alpha virt. eigenvalues --    2.41251   2.43426   2.45058   2.46030   2.54273
 Alpha virt. eigenvalues --    2.59477   2.61714   2.62624   2.63040   2.63135
 Alpha virt. eigenvalues --    2.65937   2.66362   2.68500   2.69473   2.70081
 Alpha virt. eigenvalues --    2.71318   2.72996   2.74139   2.74567   2.75260
 Alpha virt. eigenvalues --    2.75708   2.75756   2.78625   2.80230   2.83345
 Alpha virt. eigenvalues --    2.83444   2.84014   2.85697   2.86549   2.92839
 Alpha virt. eigenvalues --    2.92940   2.93311   2.94553   2.95869   3.07248
 Alpha virt. eigenvalues --    3.08036   3.08487   3.13813   3.17438   3.22309
 Alpha virt. eigenvalues --    3.23138   3.33002   3.37410   3.38565   3.42914
 Alpha virt. eigenvalues --    3.47199   3.52271   3.52795   3.55088   3.60726
 Alpha virt. eigenvalues --    3.64459   3.72831   3.82419   3.97003   4.01025
 Alpha virt. eigenvalues --    4.03609   4.12487   4.12988   4.17394   4.20721
 Alpha virt. eigenvalues --    4.54750   4.80585   4.86132   9.77781  23.49727
 Alpha virt. eigenvalues --   23.67788  23.90045  23.93516  23.93994  23.95950
 Alpha virt. eigenvalues --   24.02353  24.05864  24.09110  24.10081  24.16548
 Alpha virt. eigenvalues --   24.18845  25.82850  26.12990  26.60324 215.76836
          Condensed to atoms (all electrons):
               1          2          3          4          5          6
     1  C    9.090841  -0.497803  -0.497803  -0.175114   0.046537   1.802514
     2  C   -0.497803  11.887775  -1.933653   2.007337   0.332392  -0.780662
     3  C   -0.497803  -1.933653  11.887776  -2.742627  -0.021453  -0.780662
     4  C   -0.175114   2.007337  -2.742627  10.571195  -0.088777  -0.408068
     5  H    0.046537   0.332392  -0.021453  -0.088777   0.560031   0.039772
     6  C    1.802514  -0.780662  -0.780662  -0.408068   0.039772   6.944317
     7  C   -0.175114  -2.742626   2.007337  -3.119161  -0.009727  -0.408068
     8  H    0.046537  -0.021453   0.332392  -0.009727  -0.000159   0.039772
     9  C   -2.928862  -1.099252  -1.099252   0.081715  -0.032552  -0.750338
    10  H    0.023398  -0.105434   0.002034   0.335481  -0.009202   0.000629
    11  C   -0.372146   3.110336  -2.627373   0.472514   0.012384  -0.636803
    12  C   -0.372146  -2.627373   3.110337  -0.521366   0.019229  -0.636804
    13  H    0.023398   0.002034  -0.105434   0.042130   0.000078   0.000629
    14  Cl  -0.352532   0.230497   0.230497   0.089962  -0.000331  -0.049296
    15  C   -0.169701  -1.158161  -0.084211  -0.008525   0.023382   0.499285
    16  H    0.022952   0.038462   0.012745   0.000562   0.000807   0.003758
    17  C   -0.169701  -0.084211  -1.158161   0.103346   0.004006   0.499285
    18  H    0.022952   0.012745   0.038462   0.001908  -0.000089   0.003758
    19  C   -0.158917   0.019929   0.019929  -0.025526  -0.001448  -0.390957
    20  H   -0.001441   0.009021  -0.000883   0.000532   0.000002   0.022377
    21  H   -0.001441  -0.000883   0.009021  -0.000341   0.000001   0.022377
    22  H    0.002607   0.000948   0.000948   0.000248  -0.000001   0.039358
               7          8          9         10         11         12
     1  C   -0.175114   0.046537  -2.928862   0.023398  -0.372146  -0.372146
     2  C   -2.742626  -0.021453  -1.099252  -0.105434   3.110336  -2.627373
     3  C    2.007337   0.332392  -1.099252   0.002034  -2.627373   3.110337
     4  C   -3.119161  -0.009727   0.081715   0.335481   0.472514  -0.521366
     5  H   -0.009727  -0.000159  -0.032552  -0.009202   0.012384   0.019229
     6  C   -0.408068   0.039772  -0.750338   0.000629  -0.636803  -0.636804
     7  C   10.571195  -0.088777   0.081715   0.042130  -0.521366   0.472514
     8  H   -0.088777   0.560031  -0.032552   0.000078   0.019229   0.012384
     9  C    0.081715  -0.032552  12.693709   0.049847  -0.137202  -0.137202
    10  H    0.042130   0.000078   0.049847   0.521126   0.009262  -0.000535
    11  C   -0.521366   0.019229  -0.137202   0.009262  12.335483  -3.297366
    12  C    0.472514   0.012384  -0.137202  -0.000535  -3.297366  12.335483
    13  H    0.335481  -0.009202   0.049847  -0.000353  -0.000535   0.009262
    14  Cl   0.089962  -0.000331  -0.981304  -0.012225  -0.023064  -0.023064
    15  C    0.103346   0.004006  -0.263043  -0.000468  -2.707355   0.315940
    16  H    0.001908  -0.000089   0.002274   0.000043   0.395488  -0.015475
    17  C   -0.008525   0.023382  -0.263043   0.000147   0.315941  -2.707356
    18  H    0.000562   0.000807   0.002274   0.000001  -0.015475   0.395488
    19  C   -0.025526  -0.001448  -0.001208   0.000129   0.104096   0.104096
    20  H   -0.000341   0.000001   0.000128   0.000000  -0.037617  -0.002961
    21  H    0.000532   0.000002   0.000128   0.000000  -0.002961  -0.037617
    22  H    0.000248  -0.000001  -0.000004  -0.000000  -0.038913  -0.038913
              13         14         15         16         17         18
     1  C    0.023398  -0.352532  -0.169701   0.022952  -0.169701   0.022952
     2  C    0.002034   0.230497  -1.158161   0.038462  -0.084211   0.012745
     3  C   -0.105434   0.230497  -0.084211   0.012745  -1.158161   0.038462
     4  C    0.042130   0.089962  -0.008525   0.000562   0.103346   0.001908
     5  H    0.000078  -0.000331   0.023382   0.000807   0.004006  -0.000089
     6  C    0.000629  -0.049296   0.499285   0.003758   0.499285   0.003758
     7  C    0.335481   0.089962   0.103346   0.001908  -0.008525   0.000562
     8  H   -0.009202  -0.000331   0.004006  -0.000089   0.023382   0.000807
     9  C    0.049847  -0.981304  -0.263043   0.002274  -0.263043   0.002274
    10  H   -0.000353  -0.012225  -0.000468   0.000043   0.000147   0.000001
    11  C   -0.000535  -0.023064  -2.707355   0.395488   0.315941  -0.015475
    12  C    0.009262  -0.023064   0.315940  -0.015475  -2.707356   0.395488
    13  H    0.521126  -0.012225   0.000147   0.000001  -0.000468   0.000043
    14  Cl  -0.012225  17.427224  -0.007338   0.000008  -0.007338   0.000008
    15  C    0.000147  -0.007338   8.402339  -0.118404   0.697596  -0.015703
    16  H    0.000001   0.000008  -0.118404   0.568056  -0.015703  -0.000122
    17  C   -0.000468  -0.007338   0.697596  -0.015703   8.402339  -0.118404
    18  H    0.000043   0.000008  -0.015703  -0.000122  -0.118404   0.568056
    19  C    0.000129   0.000039   0.472424  -0.006055   0.472424  -0.006055
    20  H    0.000000  -0.000000   0.371968  -0.008827  -0.012657   0.000094
    21  H    0.000000  -0.000000  -0.012657   0.000094   0.371968  -0.008827
    22  H   -0.000000   0.000000   0.009442  -0.000303   0.009442  -0.000303
              19         20         21         22
     1  C   -0.158917  -0.001441  -0.001441   0.002607
     2  C    0.019929   0.009021  -0.000883   0.000948
     3  C    0.019929  -0.000883   0.009021   0.000948
     4  C   -0.025526   0.000532  -0.000341   0.000248
     5  H   -0.001448   0.000002   0.000001  -0.000001
     6  C   -0.390957   0.022377   0.022377   0.039358
     7  C   -0.025526  -0.000341   0.000532   0.000248
     8  H   -0.001448   0.000001   0.000002  -0.000001
     9  C   -0.001208   0.000128   0.000128  -0.000004
    10  H    0.000129   0.000000   0.000000  -0.000000
    11  C    0.104096  -0.037617  -0.002961  -0.038913
    12  C    0.104096  -0.002961  -0.037617  -0.038913
    13  H    0.000129   0.000000   0.000000  -0.000000
    14  Cl   0.000039  -0.000000  -0.000000   0.000000
    15  C    0.472424   0.371968  -0.012657   0.009442
    16  H   -0.006055  -0.008827   0.000094  -0.000303
    17  C    0.472424  -0.012657   0.371968   0.009442
    18  H   -0.006055   0.000094  -0.008827  -0.000303
    19  C    5.253043  -0.000080  -0.000080   0.364091
    20  H   -0.000080   0.543429  -0.000313  -0.007443
    21  H   -0.000080  -0.000313   0.543429  -0.007443
    22  H    0.364091  -0.007443  -0.007443   0.539472
 Mulliken charges:
               1
     1  C    0.790984
     2  C   -0.599966
     3  C   -0.599966
     4  C   -0.607697
     5  H    0.125119
     6  C    0.923826
     7  C   -0.607697
     8  H    0.125119
     9  C    0.764179
    10  H    0.143913
    11  C   -0.356557
    12  C   -0.356557
    13  H    0.143913
    14  Cl   0.400851
    15  C   -0.354310
    16  H    0.117821
    17  C   -0.354310
    18  H    0.117821
    19  C   -0.193029
    20  H    0.125012
    21  H    0.125012
    22  H    0.126518
 Sum of Mulliken charges =  -0.00000
 Mulliken charges with hydrogens summed into heavy atoms:
               1
     1  C    0.790984
     2  C   -0.474847
     3  C   -0.474847
     4  C   -0.463784
     6  C    0.923826
     7  C   -0.463784
     9  C    0.764179
    11  C   -0.238736
    12  C   -0.238736
    14  Cl   0.400851
    15  C   -0.229298
    17  C   -0.229298
    19  C   -0.066511
 Electronic spatial extent (au):  <R**2>=           3740.0078
 Charge=             -0.0000 electrons
 Dipole moment (field-independent basis, Debye):
    X=             -2.0287    Y=             -0.0000    Z=             -0.0000  Tot=              2.0287
 Quadrupole moment (field-independent basis, Debye-Ang):
   XX=            -84.1396   YY=            -72.8647   ZZ=            -89.5119
   XY=             -0.0000   XZ=              0.0000   YZ=             -0.0000
 Traceless Quadrupole moment (field-independent basis, Debye-Ang):
   XX=             -1.9675   YY=              9.3074   ZZ=             -7.3399
   XY=             -0.0000   XZ=              0.0000   YZ=             -0.0000
 Octapole moment (field-independent basis, Debye-Ang**2):
  XXX=            -50.1532  YYY=             -0.0000  ZZZ=             -0.0000  XYY=              1.5724
  XXY=              0.0000  XXZ=              0.0000  XZZ=             14.5107  YZZ=             -0.0000
  YYZ=             -0.0000  XYZ=             -0.0021
 Hexadecapole moment (field-independent basis, Debye-Ang**3):
 XXXX=          -4282.2930 YYYY=           -547.9968 ZZZZ=           -107.1474 XXXY=              0.0000
 XXXZ=              0.0000 YYYX=             -0.0000 YYYZ=             -0.0003 ZZZX=              0.0000
 ZZZY=             -0.0001 XXYY=           -779.1440 XXZZ=           -818.8570 YYZZ=           -131.6922
 XXYZ=              0.0036 YYXZ=              0.0000 ZZXY=             -0.0000
 N-N= 7.546704799321D+02 E-N=-3.676288323741D+03  KE= 9.198473216974D+02
 1\1\GINC-DAMODAR\FOpt\RB3LYP\6-311+G(d,p)\C12H9Cl1\PKC\14-Mar-2022\0\\
 # opt b3lyp/6-311+g(d,p) scf=xqc\\Title Card Required\\0,1\C,-1.584491
 293,-1.0757867652,0.0008766685\C,-0.9942728619,-2.2796023331,-0.419981
 6067\C,-2.9231625003,-1.1454643378,0.4224876727\C,-1.6907015547,-3.483
 3062349,-0.4228462631\H,0.0330623679,-2.2990470773,-0.7574197858\C,-0.
 8280877752,0.2112345806,0.0001159279\C,-3.6359528384,-2.3395480084,0.4
 26769595\H,-3.4398111464,-0.2570858709,0.7594122533\C,-3.0135618893,-3
 .5073517935,0.0023138957\H,-1.208225609,-4.3944678206,-0.753003987\C,0
 .5109942667,0.2773052935,-0.4221767637\C,-1.4216569139,1.413654815,0.4
 21658841\H,-4.6665700535,-2.3610493396,0.7574785981\Cl,-3.9042552879,-
 5.0228674864,0.0032096692\C,1.2174335947,1.4760731052,-0.423503367\H,1
 .0243928046,-0.6136081679,-0.7584112847\C,-0.7180474134,2.6140864928,0
 .4215673249\H,-2.4496259313,1.4290260957,0.758410872\C,0.6082959586,2.
 6552429293,-0.0013286672\H,2.2492325254,1.4855683099,-0.7567699304\H,-
 1.2115862732,3.5204413498,0.7542925295\H,1.1574839693,3.5896868745,-0.
 0018809947\\Version=EM64L-G16RevB.01\State=1-A\HF=-923.0423176\RMSD=2.
 052e-09\RMSF=1.593e-05\Dipole=0.4044084,0.6881013,-0.0004067\Quadrupol
 e=3.6240756,0.296697,-3.9207726,-2.9917272,-3.5188971,2.0666598\PG=C01
  [X(C12H9Cl1)]\\@


 TIME IS IN FACT THE HERO OF THE PLOT. THE TIME
 WITH WHICH WE HAVE TO DEAL IS OF THE ORDER OF TWO
 BILLION YEARS...GIVEN SO MUCH TIME, THE "IMPOSSIBLE"
 BECOMES POSSIBLE, THE POSSIBLE PROBABLE, THE PROBABLE
 VIRTUALLY CERTAIN.  ONE HAS ONLY TO WAIT, TIME
 ITSELF PERFORMS THE MIRACLES.
 "ORIGIN OF LIFE" LECTURES, GEORGE WALD, 1954
 Job cpu time:       0 days  1 hours 56 minutes 43.8 seconds.
 Elapsed time:       0 days  0 hours 46 minutes  5.7 seconds.
 File lengths (MBytes):  RWF=     78 Int=      0 D2E=      0 Chk=     10 Scr=      1
 Normal termination of Gaussian 16 at Mon Mar 14 18:09:28 2022.
